 Entering Gaussian System, Link 0=g09
 Input=test.gjf
 Output=test.log
 Initial command:
 /Users/miao/Workspace/g09/l1.exe /Users/miao/Workspace/new_quick/example/Gau-29667.inp -scrdir=/Users/miao/Workspace/new_quick/example/
 Entering Link 1 = /Users/miao/Workspace/g09/l1.exe PID=     29668.
  
 Copyright (c) 1988,1990,1992,1993,1995,1998,2003,2009, Gaussian, Inc.
                  All Rights Reserved.
  
 This is part of the Gaussian(R) 09 program.  It is based on
 the Gaussian(R) 03 system (copyright 2003, Gaussian, Inc.),
 the Gaussian(R) 98 system (copyright 1998, Gaussian, Inc.),
 the Gaussian(R) 94 system (copyright 1995, Gaussian, Inc.),
 the Gaussian 92(TM) system (copyright 1992, Gaussian, Inc.),
 the Gaussian 90(TM) system (copyright 1990, Gaussian, Inc.),
 the Gaussian 88(TM) system (copyright 1988, Gaussian, Inc.),
 the Gaussian 86(TM) system (copyright 1986, Carnegie Mellon
 University), and the Gaussian 82(TM) system (copyright 1983,
 Carnegie Mellon University). Gaussian is a federally registered
 trademark of Gaussian, Inc.
  
 This software contains proprietary and confidential information,
 including trade secrets, belonging to Gaussian, Inc.
  
 This software is provided under written license and may be
 used, copied, transmitted, or stored only in accord with that
 written license.
  
 The following legend is applicable only to US Government
 contracts under FAR:
  
                    RESTRICTED RIGHTS LEGEND
  
 Use, reproduction and disclosure by the US Government is
 subject to restrictions as set forth in subparagraphs (a)
 and (c) of the Commercial Computer Software - Restricted
 Rights clause in FAR 52.227-19.
  
 Gaussian, Inc.
 340 Quinnipiac St., Bldg. 40, Wallingford CT 06492
  
  
 ---------------------------------------------------------------
 Warning -- This program may not be used in any manner that
 competes with the business of Gaussian, Inc. or will provide
 assistance to any competitor of Gaussian, Inc.  The licensee
 of this program is prohibited from giving any competitor of
 Gaussian, Inc. access to this program.  By using this program,
 the user acknowledges that Gaussian, Inc. is engaged in the
 business of creating and licensing software in the field of
 computational chemistry and represents and warrants to the
 licensee that it is not a competitor of Gaussian, Inc. and that
 it will not use this program in any manner prohibited above.
 ---------------------------------------------------------------
  

 Cite this work as:
 Gaussian 09, Revision A.02,
 M. J. Frisch, G. W. Trucks, H. B. Schlegel, G. E. Scuseria, 
 M. A. Robb, J. R. Cheeseman, G. Scalmani, V. Barone, B. Mennucci, 
 G. A. Petersson, H. Nakatsuji, M. Caricato, X. Li, H. P. Hratchian, 
 A. F. Izmaylov, J. Bloino, G. Zheng, J. L. Sonnenberg, M. Hada, 
 M. Ehara, K. Toyota, R. Fukuda, J. Hasegawa, M. Ishida, T. Nakajima, 
 Y. Honda, O. Kitao, H. Nakai, T. Vreven, J. A. Montgomery, Jr., 
 J. E. Peralta, F. Ogliaro, M. Bearpark, J. J. Heyd, E. Brothers, 
 K. N. Kudin, V. N. Staroverov, R. Kobayashi, J. Normand, 
 K. Raghavachari, A. Rendell, J. C. Burant, S. S. Iyengar, J. Tomasi, 
 M. Cossi, N. Rega, J. M. Millam, M. Klene, J. E. Knox, J. B. Cross, 
 V. Bakken, C. Adamo, J. Jaramillo, R. Gomperts, R. E. Stratmann, 
 O. Yazyev, A. J. Austin, R. Cammi, C. Pomelli, J. W. Ochterski, 
 R. L. Martin, K. Morokuma, V. G. Zakrzewski, G. A. Voth, 
 P. Salvador, J. J. Dannenberg, S. Dapprich, A. D. Daniels, 
 O. Farkas, J. B. Foresman, J. V. Ortiz, J. Cioslowski, 
 and D. J. Fox, Gaussian, Inc., Wallingford CT, 2009.
 
 ******************************************
 Gaussian 09:  EM64M-G09RevA.02 11-Jun-2009
                19-Jul-2011 
 ******************************************
 ------------------------------------------------------
 #p charge NoSymmetry gfinput HF/sto-3g scf=tight nofmm
 ------------------------------------------------------
 1/18=10,28=-2,38=1,125=101/1;
 2/12=2,15=1,17=6,18=5,40=1/2;
 3/6=3,11=9,16=1,24=10,25=1,30=1,49=2048/1,2,3;
 4//1;
 5/5=2,32=2,38=5/2;
 6/7=2,8=2,9=2,10=2,28=1/1;
 99/5=1,9=1/99;
 Leave Link    1 at Tue Jul 19 12:31:18 2011, MaxMem=          0 cpu:       0.0
 (Enter /Users/miao/Workspace/g09/l101.exe)
 -----
 water
 -----
 Symbolic Z-matrix:
 Charge =  0 Multiplicity = 1
 H                     0.3032   -0.494     0. 
 H                    -0.3032   -0.9088    0. 
 O                     0.        0.1753    0. 
 H                     0.3032   -0.494     3. 
 H                    -0.3032   -0.9088    3. 
 O                     0.        0.1753    3. 
 H                     0.3032   -0.494     6. 
 H                    -0.3032   -0.9088    6. 
 O                     0.        0.1753    6. 
 H                     0.3032   -0.494     9. 
 H                    -0.3032   -0.9088    9. 
 O                     0.        0.1753    9. 
 
 NAtoms=     12 NQM=     12 NQMF=      0 NMic=      0 NMicF=      0 NTot=     12.
                    Isotopes and Nuclear Properties:
 (Nuclear quadrupole moments (NQMom) in fm**2, nuclear magnetic moments (NMagM)
  in nuclear magnetons)

  Atom         1           2           3           4           5           6           7           8           9          10
 IAtWgt=           1           1          16           1           1          16           1           1          16           1
 AtmWgt=   1.0078250   1.0078250  15.9949146   1.0078250   1.0078250  15.9949146   1.0078250   1.0078250  15.9949146   1.0078250
 NucSpn=           1           1           0           1           1           0           1           1           0           1
 AtZEff=   0.0000000   0.0000000   0.0000000   0.0000000   0.0000000   0.0000000   0.0000000   0.0000000   0.0000000   0.0000000
 NQMom=    0.0000000   0.0000000   0.0000000   0.0000000   0.0000000   0.0000000   0.0000000   0.0000000   0.0000000   0.0000000
 NMagM=    2.7928460   2.7928460   0.0000000   2.7928460   2.7928460   0.0000000   2.7928460   2.7928460   0.0000000   2.7928460

  Atom        11          12
 IAtWgt=           1          16
 AtmWgt=   1.0078250  15.9949146
 NucSpn=           1           0
 AtZEff=   0.0000000   0.0000000
 NQMom=    0.0000000   0.0000000
 NMagM=    2.7928460   0.0000000
 Background charge distribution read from input stream:
 Point Charges:
 XYZ=    1.2000   23.0000    3.4000 Q=    0.3000 A=    0.0000 R=    0.0000 C=    0.0000
 Sum of input charges=            0.300000
              Moments=            0.360000            6.900000            1.020000
 Leave Link  101 at Tue Jul 19 12:31:18 2011, MaxMem=   33554432 cpu:       0.1
 (Enter /Users/miao/Workspace/g09/l202.exe)
                          Input orientation:                          
 ---------------------------------------------------------------------
 Center     Atomic      Atomic             Coordinates (Angstroms)
 Number     Number       Type             X           Y           Z
 ---------------------------------------------------------------------
      1          1           0        0.303200   -0.494000    0.000000
      2          1           0       -0.303200   -0.908800    0.000000
      3          8           0        0.000000    0.175300    0.000000
      4          1           0        0.303200   -0.494000    3.000000
      5          1           0       -0.303200   -0.908800    3.000000
      6          8           0        0.000000    0.175300    3.000000
      7          1           0        0.303200   -0.494000    6.000000
      8          1           0       -0.303200   -0.908800    6.000000
      9          8           0        0.000000    0.175300    6.000000
     10          1           0        0.303200   -0.494000    9.000000
     11          1           0       -0.303200   -0.908800    9.000000
     12          8           0        0.000000    0.175300    9.000000
 ---------------------------------------------------------------------
                    Distance matrix (angstroms):
                    1          2          3          4          5
     1  H    0.000000
     2  H    0.734697   0.000000
     3  O    0.734774   1.125701   0.000000
     4  H    3.000000   3.088653   3.088672   0.000000
     5  H    3.088653   3.000000   3.204248   0.734697   0.000000
     6  O    3.088672   3.204248   3.000000   0.734774   1.125701
     7  H    6.000000   6.044814   6.044824   3.000000   3.088653
     8  H    6.044814   6.000000   6.104687   3.088653   3.000000
     9  O    6.044824   6.104687   6.000000   3.088672   3.204248
    10  H    9.000000   9.029938   9.029944   6.000000   6.044814
    11  H    9.029938   9.000000   9.070127   6.044814   6.000000
    12  O    9.029944   9.070127   9.000000   6.044824   6.104687
                    6          7          8          9         10
     6  O    0.000000
     7  H    3.088672   0.000000
     8  H    3.204248   0.734697   0.000000
     9  O    3.000000   0.734774   1.125701   0.000000
    10  H    6.044824   3.000000   3.088653   3.088672   0.000000
    11  H    6.104687   3.088653   3.000000   3.204248   0.734697
    12  O    6.000000   3.088672   3.204248   3.000000   0.734774
                   11         12
    11  H    0.000000
    12  O    1.125701   0.000000
 Symmetry turned off by external request.
 Stoichiometry    H8O4
 Framework group  CS[X(H8O4)]
 Deg. of freedom    15
 Full point group                 CS      NOp   2
 Rotational constants (GHZ):     76.6722974      0.6230272      0.6190522
 Leave Link  202 at Tue Jul 19 12:31:18 2011, MaxMem=   33554432 cpu:       0.0
 (Enter /Users/miao/Workspace/g09/l301.exe)
 Standard basis: STO-3G (5D, 7F)
 Ernie: Thresh=  0.10000D-02 Tol=  0.10000D-05 Strict=F.
 AO basis set in the form of general basis input (Overlap normalization):
      1 0
 S   3 1.00       0.000000000000
      0.3425250914D+01  0.1543289673D+00
      0.6239137298D+00  0.5353281423D+00
      0.1688554040D+00  0.4446345422D+00
 ****
      2 0
 S   3 1.00       0.000000000000
      0.3425250914D+01  0.1543289673D+00
      0.6239137298D+00  0.5353281423D+00
      0.1688554040D+00  0.4446345422D+00
 ****
      3 0
 S   3 1.00       0.000000000000
      0.1307093214D+03  0.1543289673D+00
      0.2380886605D+02  0.5353281423D+00
      0.6443608313D+01  0.4446345422D+00
 SP   3 1.00       0.000000000000
      0.5033151319D+01 -0.9996722919D-01  0.1559162750D+00
      0.1169596125D+01  0.3995128261D+00  0.6076837186D+00
      0.3803889600D+00  0.7001154689D+00  0.3919573931D+00
 ****
      4 0
 S   3 1.00       0.000000000000
      0.3425250914D+01  0.1543289673D+00
      0.6239137298D+00  0.5353281423D+00
      0.1688554040D+00  0.4446345422D+00
 ****
      5 0
 S   3 1.00       0.000000000000
      0.3425250914D+01  0.1543289673D+00
      0.6239137298D+00  0.5353281423D+00
      0.1688554040D+00  0.4446345422D+00
 ****
      6 0
 S   3 1.00       0.000000000000
      0.1307093214D+03  0.1543289673D+00
      0.2380886605D+02  0.5353281423D+00
      0.6443608313D+01  0.4446345422D+00
 SP   3 1.00       0.000000000000
      0.5033151319D+01 -0.9996722919D-01  0.1559162750D+00
      0.1169596125D+01  0.3995128261D+00  0.6076837186D+00
      0.3803889600D+00  0.7001154689D+00  0.3919573931D+00
 ****
      7 0
 S   3 1.00       0.000000000000
      0.3425250914D+01  0.1543289673D+00
      0.6239137298D+00  0.5353281423D+00
      0.1688554040D+00  0.4446345422D+00
 ****
      8 0
 S   3 1.00       0.000000000000
      0.3425250914D+01  0.1543289673D+00
      0.6239137298D+00  0.5353281423D+00
      0.1688554040D+00  0.4446345422D+00
 ****
      9 0
 S   3 1.00       0.000000000000
      0.1307093214D+03  0.1543289673D+00
      0.2380886605D+02  0.5353281423D+00
      0.6443608313D+01  0.4446345422D+00
 SP   3 1.00       0.000000000000
      0.5033151319D+01 -0.9996722919D-01  0.1559162750D+00
      0.1169596125D+01  0.3995128261D+00  0.6076837186D+00
      0.3803889600D+00  0.7001154689D+00  0.3919573931D+00
 ****
     10 0
 S   3 1.00       0.000000000000
      0.3425250914D+01  0.1543289673D+00
      0.6239137298D+00  0.5353281423D+00
      0.1688554040D+00  0.4446345422D+00
 ****
     11 0
 S   3 1.00       0.000000000000
      0.3425250914D+01  0.1543289673D+00
      0.6239137298D+00  0.5353281423D+00
      0.1688554040D+00  0.4446345422D+00
 ****
     12 0
 S   3 1.00       0.000000000000
      0.1307093214D+03  0.1543289673D+00
      0.2380886605D+02  0.5353281423D+00
      0.6443608313D+01  0.4446345422D+00
 SP   3 1.00       0.000000000000
      0.5033151319D+01 -0.9996722919D-01  0.1559162750D+00
      0.1169596125D+01  0.3995128261D+00  0.6076837186D+00
      0.3803889600D+00  0.7001154689D+00  0.3919573931D+00
 ****

 Integral buffers will be    131072 words long.
 Raffenetti 1 integral format.
 Two-electron integral symmetry is turned off.
    28 basis functions,    84 primitive gaussians,    28 cartesian basis functions
    20 alpha electrons       20 beta electrons
       nuclear repulsion energy       116.5107697389 Hartrees.
 IExCor=    0 DFT=F Ex=HF Corr=None ExCW=0 ScaHFX=  1.000000
 ScaDFX=  1.000000  1.000000  1.000000  1.000000 ScalE2=  1.000000  1.000000
 IRadAn=      0 IRanWt=     -1 IRanGd=            0 ICorTp=0
 Background charge distribution read from rwf.
 FoFCou: FMM=F IPFlag=           0 FMFlag=      100000 FMFlg1=         800
         NFxFlg=           0 DoJE=F BraDBF=T KetDBF=T FulRan=T
         Omega=  0.000000  0.000000  1.000000  0.000000  0.000000 ICntrl=    1100 IOpCl=  0
         NMat0=    1 NMatS0=    1 NMatT0=    0 NMatD0=    1 NMtDS0=    0 NMtDT0=    0
         I1Cent=    10001006 NGrid=          13.
 Symmetry not used in FoFCou.
 Self energy of the charges =         0.0000000000 a.u.
 MM   energy of the charges =         0.0000000000 a.u.
 Nuclei-charges interaction =         0.2726397566 a.u.
 Nuclear repulsion after external point charges =      116.7834094956 Hartrees.
 Leave Link  301 at Tue Jul 19 12:31:19 2011, MaxMem=   33554432 cpu:       0.1
 (Enter /Users/miao/Workspace/g09/l302.exe)
 NPDir=0 NMtPBC=     1 NCelOv=     1 NCel=       1 NClECP=     1 NCelD=      1
         NCelK=      1 NCelE2=     1 NClLst=     1 CellRange=     0.0.
 One-electron integrals computed using PRISM.
 NBasis=    28 RedAO= T  NBF=    28
 NBsUse=    28 1.00D-06 NBFU=    28
 Leave Link  302 at Tue Jul 19 12:31:20 2011, MaxMem=   33554432 cpu:       0.2
 (Enter /Users/miao/Workspace/g09/l303.exe)
 DipDrv:  MaxL=1.
 Leave Link  303 at Tue Jul 19 12:31:21 2011, MaxMem=   33554432 cpu:       0.0
 (Enter /Users/miao/Workspace/g09/l401.exe)
 Harris functional with IExCor=  205 diagonalized for initial guess.
 ExpMin= 1.69D-01 ExpMax= 1.31D+02 ExpMxC= 1.31D+02 IAcc=1 IRadAn=         1 AccDes= 0.00D+00
 HarFok:  IExCor=  205 AccDes= 0.00D+00 IRadAn=         1 IDoV= 1
 ScaDFX=  1.000000  1.000000  1.000000  1.000000
 FoFCou: FMM=F IPFlag=           0 FMFlag=      100000 FMFlg1=         800
         NFxFlg=           0 DoJE=T BraDBF=F KetDBF=T FulRan=T
         Omega=  0.000000  0.000000  1.000000  0.000000  0.000000 ICntrl=     500 IOpCl=  0
         NMat0=    1 NMatS0=    1 NMatT0=    0 NMatD0=    1 NMtDS0=    0 NMtDT0=    0
         I1Cent=           4 NGrid=           0.
 Symmetry not used in FoFCou.
 Harris En= -298.850471827722    
 Leave Link  401 at Tue Jul 19 12:31:22 2011, MaxMem=   33554432 cpu:       0.3
 (Enter /Users/miao/Workspace/g09/l502.exe)
 Closed shell SCF:
 Requested convergence on RMS density matrix=1.00D-08 within 128 cycles.
 Requested convergence on MAX density matrix=1.00D-06.
 Requested convergence on             energy=1.00D-06.
 No special actions if energy rises.
 Using DIIS extrapolation, IDIIS=  1040.
 Two-electron integral symmetry not used.
 Keep R1 ints in memory in canonical form, NReq=903493.
 IEnd=       20858 IEndB=       20858 NGot=    33554432 MDV=    33468378
 LenX=    33468378 LenY=    33467153
 Symmetry not used in FoFDir.
 MinBra= 0 MaxBra= 1 Meth= 1.
 IRaf=       0 NMat=   1 IRICut=       1 DoRegI=T DoRafI=F ISym2E= 0 JSym2E=0.

 Cycle   1  Pass 1  IDiag  1:
 E= -297.951584554383    
 DIIS: error= 6.49D-02 at cycle   1 NSaved=   1.
 NSaved= 1 IEnMin= 1 EnMin= -297.951584554383     IErMin= 1 ErrMin= 6.49D-02
 ErrMax= 6.49D-02 EMaxC= 1.00D-01 BMatC= 2.85D-01 BMatP= 2.85D-01
 IDIUse=3 WtCom= 3.51D-01 WtEn= 6.49D-01
 Coeff-Com:  0.100D+01
 Coeff-En:   0.100D+01
 Coeff:      0.100D+01
 Gap=     0.570 Goal=   None    Shift=    0.000
 GapD=    0.570 DampG=2.000 DampE=0.500 DampFc=1.0000 IDamp=-1.
 RMSDP=3.83D-02 MaxDP=2.92D-01              OVMax= 0.00D+00

 Cycle   2  Pass 1  IDiag  1:
 E= -298.356011531794     Delta-E=       -0.404426977411 Rises=F Damp=F
 DIIS: error= 3.10D-02 at cycle   2 NSaved=   2.
 NSaved= 2 IEnMin= 2 EnMin= -298.356011531794     IErMin= 2 ErrMin= 3.10D-02
 ErrMax= 3.10D-02 EMaxC= 1.00D-01 BMatC= 2.52D-02 BMatP= 2.85D-01
 IDIUse=3 WtCom= 6.90D-01 WtEn= 3.10D-01
 Coeff-Com:  0.208D+00 0.792D+00
 Coeff-En:   0.000D+00 0.100D+01
 Coeff:      0.144D+00 0.856D+00
 Gap=     0.789 Goal=   None    Shift=    0.000
 RMSDP=9.94D-03 MaxDP=6.91D-02 DE=-4.04D-01 OVMax= 0.00D+00

 Cycle   3  Pass 1  IDiag  1:
 E= -298.383596931026     Delta-E=       -0.027585399232 Rises=F Damp=F
 DIIS: error= 2.95D-03 at cycle   3 NSaved=   3.
 NSaved= 3 IEnMin= 3 EnMin= -298.383596931026     IErMin= 3 ErrMin= 2.95D-03
 ErrMax= 2.95D-03 EMaxC= 1.00D-01 BMatC= 4.97D-04 BMatP= 2.52D-02
 IDIUse=3 WtCom= 9.71D-01 WtEn= 2.95D-02
 Coeff-Com: -0.571D-01-0.158D+00 0.121D+01
 Coeff-En:   0.000D+00 0.000D+00 0.100D+01
 Coeff:     -0.555D-01-0.153D+00 0.121D+01
 Gap=     0.787 Goal=   None    Shift=    0.000
 RMSDP=1.96D-03 MaxDP=8.58D-03 DE=-2.76D-02 OVMax= 0.00D+00

 Cycle   4  Pass 1  IDiag  1:
 E= -298.384804913691     Delta-E=       -0.001207982665 Rises=F Damp=F
 DIIS: error= 1.31D-03 at cycle   4 NSaved=   4.
 NSaved= 4 IEnMin= 4 EnMin= -298.384804913691     IErMin= 4 ErrMin= 1.31D-03
 ErrMax= 1.31D-03 EMaxC= 1.00D-01 BMatC= 3.49D-05 BMatP= 4.97D-04
 IDIUse=3 WtCom= 9.87D-01 WtEn= 1.31D-02
 Coeff-Com:  0.720D-02-0.533D-02-0.319D+00 0.132D+01
 Coeff-En:   0.000D+00 0.000D+00 0.000D+00 0.100D+01
 Coeff:      0.710D-02-0.526D-02-0.315D+00 0.131D+01
 Gap=     0.788 Goal=   None    Shift=    0.000
 RMSDP=7.02D-04 MaxDP=3.45D-03 DE=-1.21D-03 OVMax= 0.00D+00

 Cycle   5  Pass 1  IDiag  1:
 E= -298.384886588537     Delta-E=       -0.000081674846 Rises=F Damp=F
 DIIS: error= 1.48D-04 at cycle   5 NSaved=   5.
 NSaved= 5 IEnMin= 5 EnMin= -298.384886588537     IErMin= 5 ErrMin= 1.48D-04
 ErrMax= 1.48D-04 EMaxC= 1.00D-01 BMatC= 6.90D-07 BMatP= 3.49D-05
 IDIUse=3 WtCom= 9.99D-01 WtEn= 1.48D-03
 Coeff-Com:  0.576D-03 0.256D-02 0.117D-01-0.168D+00 0.115D+01
 Coeff-En:   0.000D+00 0.000D+00 0.000D+00 0.000D+00 0.100D+01
 Coeff:      0.575D-03 0.255D-02 0.117D-01-0.168D+00 0.115D+01
 Gap=     0.788 Goal=   None    Shift=    0.000
 RMSDP=8.45D-05 MaxDP=4.66D-04 DE=-8.17D-05 OVMax= 0.00D+00

 Cycle   6  Pass 1  IDiag  1:
 E= -298.384888180141     Delta-E=       -0.000001591605 Rises=F Damp=F
 DIIS: error= 3.91D-05 at cycle   6 NSaved=   6.
 NSaved= 6 IEnMin= 6 EnMin= -298.384888180141     IErMin= 6 ErrMin= 3.91D-05
 ErrMax= 3.91D-05 EMaxC= 1.00D-01 BMatC= 4.90D-08 BMatP= 6.90D-07
 IDIUse=1 WtCom= 1.00D+00 WtEn= 0.00D+00
 Coeff-Com: -0.283D-03-0.609D-04 0.138D-01-0.477D-01-0.999D-01 0.113D+01
 Coeff:     -0.283D-03-0.609D-04 0.138D-01-0.477D-01-0.999D-01 0.113D+01
 Gap=     0.788 Goal=   None    Shift=    0.000
 RMSDP=2.05D-05 MaxDP=1.09D-04 DE=-1.59D-06 OVMax= 0.00D+00

 Cycle   7  Pass 1  IDiag  1:
 E= -298.384888339012     Delta-E=       -0.000000158871 Rises=F Damp=F
 DIIS: error= 1.57D-05 at cycle   7 NSaved=   7.
 NSaved= 7 IEnMin= 7 EnMin= -298.384888339012     IErMin= 7 ErrMin= 1.57D-05
 ErrMax= 1.57D-05 EMaxC= 1.00D-01 BMatC= 8.39D-09 BMatP= 4.90D-08
 IDIUse=1 WtCom= 1.00D+00 WtEn= 0.00D+00
 Coeff-Com:  0.309D-03-0.257D-04-0.144D-01 0.600D-01-0.275D-01-0.975D+00
 Coeff-Com:  0.196D+01
 Coeff:      0.309D-03-0.257D-04-0.144D-01 0.600D-01-0.275D-01-0.975D+00
 Coeff:      0.196D+01
 Gap=     0.788 Goal=   None    Shift=    0.000
 RMSDP=1.53D-05 MaxDP=6.45D-05 DE=-1.59D-07 OVMax= 0.00D+00

 Cycle   8  Pass 1  IDiag  1:
 E= -298.384888378663     Delta-E=       -0.000000039651 Rises=F Damp=F
 DIIS: error= 5.61D-07 at cycle   8 NSaved=   8.
 NSaved= 8 IEnMin= 8 EnMin= -298.384888378663     IErMin= 8 ErrMin= 5.61D-07
 ErrMax= 5.61D-07 EMaxC= 1.00D-01 BMatC= 1.80D-11 BMatP= 8.39D-09
 IDIUse=1 WtCom= 1.00D+00 WtEn= 0.00D+00
 Coeff-Com: -0.233D-04 0.527D-06 0.112D-02-0.488D-02 0.385D-02 0.703D-01
 Coeff-Com: -0.188D+00 0.112D+01
 Coeff:     -0.233D-04 0.527D-06 0.112D-02-0.488D-02 0.385D-02 0.703D-01
 Coeff:     -0.188D+00 0.112D+01
 Gap=     0.788 Goal=   None    Shift=    0.000
 RMSDP=7.06D-07 MaxDP=2.91D-06 DE=-3.97D-08 OVMax= 0.00D+00

 Cycle   9  Pass 1  IDiag  1:
 E= -298.384888378739     Delta-E=       -0.000000000076 Rises=F Damp=F
 DIIS: error= 1.23D-07 at cycle   9 NSaved=   9.
 NSaved= 9 IEnMin= 9 EnMin= -298.384888378739     IErMin= 9 ErrMin= 1.23D-07
 ErrMax= 1.23D-07 EMaxC= 1.00D-01 BMatC= 4.64D-13 BMatP= 1.80D-11
 IDIUse=1 WtCom= 1.00D+00 WtEn= 0.00D+00
 Coeff-Com:  0.454D-05 0.208D-05-0.220D-03 0.974D-03-0.779D-03-0.140D-01
 Coeff-Com:  0.481D-01-0.441D+00 0.141D+01
 Coeff:      0.454D-05 0.208D-05-0.220D-03 0.974D-03-0.779D-03-0.140D-01
 Coeff:      0.481D-01-0.441D+00 0.141D+01
 Gap=     0.788 Goal=   None    Shift=    0.000
 RMSDP=7.64D-08 MaxDP=5.56D-07 DE=-7.58D-11 OVMax= 0.00D+00

 Cycle  10  Pass 1  IDiag  1:
 E= -298.384888378741     Delta-E=       -0.000000000002 Rises=F Damp=F
 DIIS: error= 6.15D-08 at cycle  10 NSaved=  10.
 NSaved=10 IEnMin=10 EnMin= -298.384888378741     IErMin=10 ErrMin= 6.15D-08
 ErrMax= 6.15D-08 EMaxC= 1.00D-01 BMatC= 7.80D-14 BMatP= 4.64D-13
 IDIUse=1 WtCom= 1.00D+00 WtEn= 0.00D+00
 Coeff-Com: -0.519D-06-0.247D-05 0.263D-04-0.138D-03 0.219D-03 0.123D-02
 Coeff-Com: -0.156D-01 0.260D+00-0.126D+01 0.201D+01
 Coeff:     -0.519D-06-0.247D-05 0.263D-04-0.138D-03 0.219D-03 0.123D-02
 Coeff:     -0.156D-01 0.260D+00-0.126D+01 0.201D+01
 Gap=     0.788 Goal=   None    Shift=    0.000
 RMSDP=5.38D-08 MaxDP=4.78D-07 DE=-1.82D-12 OVMax= 0.00D+00

 Cycle  11  Pass 1  IDiag  1:
 E= -298.384888378741     Delta-E=       -0.000000000001 Rises=F Damp=F
 DIIS: error= 1.16D-08 at cycle  11 NSaved=  11.
 NSaved=11 IEnMin=11 EnMin= -298.384888378741     IErMin=11 ErrMin= 1.16D-08
 ErrMax= 1.16D-08 EMaxC= 1.00D-01 BMatC= 4.07D-15 BMatP= 7.80D-14
 IDIUse=1 WtCom= 1.00D+00 WtEn= 0.00D+00
 Coeff-Com: -0.933D-07 0.130D-05 0.352D-05-0.221D-06-0.998D-04 0.684D-03
 Coeff-Com:  0.500D-02-0.120D+00 0.634D+00-0.119D+01 0.167D+01
 Coeff:     -0.933D-07 0.130D-05 0.352D-05-0.221D-06-0.998D-04 0.684D-03
 Coeff:      0.500D-02-0.120D+00 0.634D+00-0.119D+01 0.167D+01
 Gap=     0.788 Goal=   None    Shift=    0.000
 RMSDP=1.18D-08 MaxDP=1.04D-07 DE=-5.12D-13 OVMax= 0.00D+00

 Cycle  12  Pass 1  IDiag  1:
 E= -298.384888378741     Delta-E=        0.000000000000 Rises=F Damp=F
 DIIS: error= 1.63D-09 at cycle  12 NSaved=  12.
 NSaved=12 IEnMin=11 EnMin= -298.384888378741     IErMin=12 ErrMin= 1.63D-09
 ErrMax= 1.63D-09 EMaxC= 1.00D-01 BMatC= 1.18D-16 BMatP= 4.07D-15
 IDIUse=1 WtCom= 1.00D+00 WtEn= 0.00D+00
 Coeff-Com:  0.806D-08-0.278D-06-0.240D-06-0.223D-05 0.209D-04-0.101D-03
 Coeff-Com: -0.124D-02 0.271D-01-0.144D+00 0.283D+00-0.552D+00 0.139D+01
 Coeff:      0.806D-08-0.278D-06-0.240D-06-0.223D-05 0.209D-04-0.101D-03
 Coeff:     -0.124D-02 0.271D-01-0.144D+00 0.283D+00-0.552D+00 0.139D+01
 Gap=     0.788 Goal=   None    Shift=    0.000
 RMSDP=1.70D-09 MaxDP=1.15D-08 DE= 1.14D-13 OVMax= 0.00D+00

 SCF Done:  E(RHF) =  -298.384888379     A.U. after   12 cycles
             Convg  =    0.1698D-08             -V/T =  1.9914
 KE= 3.009646860377D+02 PE=-9.461833969313D+02 EE= 2.300504130193D+02
 Leave Link  502 at Tue Jul 19 12:31:23 2011, MaxMem=   33554432 cpu:       0.1
 (Enter /Users/miao/Workspace/g09/l601.exe)
 Copying SCF densities to generalized density rwf, IOpCl= 0 IROHF=0.

 **********************************************************************

            Population analysis using the SCF density.

 **********************************************************************

 Alpha  occ. eigenvalues --  -20.25699 -20.25695 -20.25545 -20.25534  -1.40612
 Alpha  occ. eigenvalues --   -1.40489  -1.40325  -1.40183  -0.59957  -0.59923
 Alpha  occ. eigenvalues --   -0.59768  -0.59623  -0.46742  -0.46546  -0.46252
 Alpha  occ. eigenvalues --   -0.45978  -0.42788  -0.42205  -0.41384  -0.40648
 Alpha virt. eigenvalues --    0.38151   0.38898   0.39847   0.40628   1.09960
 Alpha virt. eigenvalues --    1.11438   1.13276   1.14774
          Condensed to atoms (all electrons):
              1          2          3          4          5          6
     1  H    0.536139  -0.015628   0.193987  -0.000114  -0.000095   0.000083
     2  H   -0.015628   0.815199   0.062485  -0.000094   0.000017  -0.000008
     3  O    0.193987   0.062485   8.167213   0.000082  -0.000009  -0.000100
     4  H   -0.000114  -0.000094   0.000082   0.539473  -0.015573   0.192507
     5  H   -0.000095   0.000017  -0.000009  -0.015573   0.825300   0.060124
     6  O    0.000083  -0.000008  -0.000100   0.192507   0.060124   8.161587
     7  H    0.000000   0.000000   0.000000  -0.000114  -0.000095   0.000083
     8  H    0.000000   0.000000   0.000000  -0.000095   0.000016  -0.000009
     9  O    0.000000   0.000000   0.000000   0.000083  -0.000009  -0.000099
    10  H    0.000000   0.000000   0.000000   0.000000   0.000000   0.000000
    11  H    0.000000   0.000000   0.000000   0.000000   0.000000   0.000000
    12  O    0.000000   0.000000   0.000000   0.000000   0.000000   0.000000
              7          8          9         10         11         12
     1  H    0.000000   0.000000   0.000000   0.000000   0.000000   0.000000
     2  H    0.000000   0.000000   0.000000   0.000000   0.000000   0.000000
     3  O    0.000000   0.000000   0.000000   0.000000   0.000000   0.000000
     4  H   -0.000114  -0.000095   0.000083   0.000000   0.000000   0.000000
     5  H   -0.000095   0.000016  -0.000009   0.000000   0.000000   0.000000
     6  O    0.000083  -0.000009  -0.000099   0.000000   0.000000   0.000000
     7  H    0.539475  -0.015573   0.192506  -0.000114  -0.000094   0.000082
     8  H   -0.015573   0.825308   0.060122  -0.000095   0.000017  -0.000009
     9  O    0.192506   0.060122   8.161583   0.000083  -0.000008  -0.000100
    10  H   -0.000114  -0.000095   0.000083   0.536143  -0.015628   0.193984
    11  H   -0.000094   0.000017  -0.000008  -0.015628   0.815222   0.062480
    12  O    0.000082  -0.000009  -0.000100   0.193984   0.062480   8.167203
 Mulliken atomic charges:
              1
     1  H    0.285628
     2  H    0.138029
     3  O   -0.423659
     4  H    0.283846
     5  H    0.130324
     6  O   -0.414167
     7  H    0.283845
     8  H    0.130318
     9  O   -0.414160
    10  H    0.285627
    11  H    0.138012
    12  O   -0.423641
 Sum of Mulliken atomic charges =   0.00000
 Mulliken charges with hydrogens summed into heavy atoms:
              1
     3  O   -0.000002
     6  O    0.000002
     9  O    0.000002
    12  O   -0.000002
 Sum of Mulliken charges with hydrogens summed into heavy atoms =   0.00000
 Electronic spatial extent (au):  <R**2>=           4570.3018
 Charge=              0.0000 electrons
 Dipole moment (field-independent basis, Debye):
    X=              1.5936    Y=             -7.7306    Z=              0.0000  Tot=              7.8932
 Quadrupole moment (field-independent basis, Debye-Ang):
   XX=            -23.1954   YY=            -18.7994   ZZ=            -24.3674
   XY=              0.3026   XZ=              7.1713   YZ=            -34.7873
 Traceless Quadrupole moment (field-independent basis, Debye-Ang):
   XX=             -1.0747   YY=              3.3213   ZZ=             -2.2467
   XY=              0.3026   XZ=              7.1713   YZ=            -34.7873
 Octapole moment (field-independent basis, Debye-Ang**2):
  XXX=              1.0215  YYY=             -0.1299  ZZZ=           -328.9598  XYY=              0.5206
  XXY=              0.5071  XXZ=           -104.3793  XZZ=             50.3198  YZZ=           -244.0895
  YYZ=            -84.5976  XYZ=              1.3618
 Hexadecapole moment (field-independent basis, Debye-Ang**3):
 XXXX=            -16.1224 YYYY=            -29.9486 ZZZZ=          -4617.7013 XXXY=             -1.4171
 XXXZ=              4.5968 YYYX=             -0.9920 YYYZ=             -0.5840 ZZZX=            388.8792
 ZZZY=          -1886.3245 XXYY=             -7.8742 XXZZ=           -735.4002 YYZZ=           -599.2880
 XXYZ=              2.2822 YYXZ=              2.3429 ZZXY=              9.2084
 N-N= 1.167834094956D+02 E-N=-9.461833969026D+02  KE= 3.009646860377D+02
 No NMR shielding tensors so no spin-rotation constants.
 Leave Link  601 at Tue Jul 19 12:31:24 2011, MaxMem=   33554432 cpu:       0.1
 (Enter /Users/miao/Workspace/g09/l9999.exe)

 Test job not archived.
 1\1\GINC-QTPCLNT135\SP\RHF\STO-3G\H8O4\MIAO\19-Jul-2011\0\\#p charge N
 oSymmetry gfinput HF/sto-3g scf=tight nofmm\\water\\0,1\H,0,0.3032,-0.
 494,0.\H,0,-0.3032,-0.9088,0.\O,0,0.,0.1753,0.\H,0,0.3032,-0.494,3.\H,
 0,-0.3032,-0.9088,3.\O,0,0.,0.1753,3.\H,0,0.3032,-0.494,6.\H,0,-0.3032
 ,-0.9088,6.\O,0,0.,0.1753,6.\H,0,0.3032,-0.494,9.\H,0,-0.3032,-0.9088,
 9.\O,0,0.,0.1753,9.\\Version=EM64M-G09RevA.02\HF=-298.3848884\RMSD=1.6
 98e-09\Dipole=0.6269663,-3.0414678,0.0000008\Quadrupole=-0.7989868,2.4
 693259,-1.6703392,0.2250114,5.331682,-25.8634995\PG=CS [X(H8O4)]\\@


 A MATHEMATICIAN IS A MACHINE FOR TURNING COFFEE INTO THEOREMS.
     -- QUOTED BY PAUL ERDOS
 Job cpu time:  0 days  0 hours  0 minutes  1.3 seconds.
 File lengths (MBytes):  RWF=      5 Int=      0 D2E=      0 Chk=      1 Scr=      1
 Normal termination of Gaussian 09 at Tue Jul 19 12:31:25 2011.
