 Entering Gaussian System, Link 0=g09
 Input=test3.gjf
 Output=test3.log
 Initial command:
 /Users/miao/Workspace/g09/l1.exe /Users/miao/Workspace/new_quick/example/Gau-67782.inp -scrdir=/Users/miao/Workspace/new_quick/example/
 Entering Link 1 = /Users/miao/Workspace/g09/l1.exe PID=     67783.
  
 Copyright (c) 1988,1990,1992,1993,1995,1998,2003,2009, Gaussian, Inc.
                  All Rights Reserved.
  
 This is part of the Gaussian(R) 09 program.  It is based on
 the Gaussian(R) 03 system (copyright 2003, Gaussian, Inc.),
 the Gaussian(R) 98 system (copyright 1998, Gaussian, Inc.),
 the Gaussian(R) 94 system (copyright 1995, Gaussian, Inc.),
 the Gaussian 92(TM) system (copyright 1992, Gaussian, Inc.),
 the Gaussian 90(TM) system (copyright 1990, Gaussian, Inc.),
 the Gaussian 88(TM) system (copyright 1988, Gaussian, Inc.),
 the Gaussian 86(TM) system (copyright 1986, Carnegie Mellon
 University), and the Gaussian 82(TM) system (copyright 1983,
 Carnegie Mellon University). Gaussian is a federally registered
 trademark of Gaussian, Inc.
  
 This software contains proprietary and confidential information,
 including trade secrets, belonging to Gaussian, Inc.
  
 This software is provided under written license and may be
 used, copied, transmitted, or stored only in accord with that
 written license.
  
 The following legend is applicable only to US Government
 contracts under FAR:
  
                    RESTRICTED RIGHTS LEGEND
  
 Use, reproduction and disclosure by the US Government is
 subject to restrictions as set forth in subparagraphs (a)
 and (c) of the Commercial Computer Software - Restricted
 Rights clause in FAR 52.227-19.
  
 Gaussian, Inc.
 340 Quinnipiac St., Bldg. 40, Wallingford CT 06492
  
  
 ---------------------------------------------------------------
 Warning -- This program may not be used in any manner that
 competes with the business of Gaussian, Inc. or will provide
 assistance to any competitor of Gaussian, Inc.  The licensee
 of this program is prohibited from giving any competitor of
 Gaussian, Inc. access to this program.  By using this program,
 the user acknowledges that Gaussian, Inc. is engaged in the
 business of creating and licensing software in the field of
 computational chemistry and represents and warrants to the
 licensee that it is not a competitor of Gaussian, Inc. and that
 it will not use this program in any manner prohibited above.
 ---------------------------------------------------------------
  

 Cite this work as:
 Gaussian 09, Revision A.02,
 M. J. Frisch, G. W. Trucks, H. B. Schlegel, G. E. Scuseria, 
 M. A. Robb, J. R. Cheeseman, G. Scalmani, V. Barone, B. Mennucci, 
 G. A. Petersson, H. Nakatsuji, M. Caricato, X. Li, H. P. Hratchian, 
 A. F. Izmaylov, J. Bloino, G. Zheng, J. L. Sonnenberg, M. Hada, 
 M. Ehara, K. Toyota, R. Fukuda, J. Hasegawa, M. Ishida, T. Nakajima, 
 Y. Honda, O. Kitao, H. Nakai, T. Vreven, J. A. Montgomery, Jr., 
 J. E. Peralta, F. Ogliaro, M. Bearpark, J. J. Heyd, E. Brothers, 
 K. N. Kudin, V. N. Staroverov, R. Kobayashi, J. Normand, 
 K. Raghavachari, A. Rendell, J. C. Burant, S. S. Iyengar, J. Tomasi, 
 M. Cossi, N. Rega, J. M. Millam, M. Klene, J. E. Knox, J. B. Cross, 
 V. Bakken, C. Adamo, J. Jaramillo, R. Gomperts, R. E. Stratmann, 
 O. Yazyev, A. J. Austin, R. Cammi, C. Pomelli, J. W. Ochterski, 
 R. L. Martin, K. Morokuma, V. G. Zakrzewski, G. A. Voth, 
 P. Salvador, J. J. Dannenberg, S. Dapprich, A. D. Daniels, 
 O. Farkas, J. B. Foresman, J. V. Ortiz, J. Cioslowski, 
 and D. J. Fox, Gaussian, Inc., Wallingford CT, 2009.
 
 ******************************************
 Gaussian 09:  EM64M-G09RevA.02 11-Jun-2009
                21-Nov-2011 
 ******************************************
 ------------
 #B3LYP/6-31g
 ------------
 1/38=1/1;
 2/12=2,17=6,18=5,40=1/2;
 3/5=1,6=6,11=2,16=1,25=1,30=1,74=-5/1,2,3;
 4//1;
 5/5=2,38=5/2;
 6/7=2,8=2,9=2,10=2,28=1/1;
 99/5=1,9=1/99;
 -------
 Dooh H2
 -------
 Symbolic Z-matrix:
 Charge =  0 Multiplicity = 1
 C                     4.5916    2.6127    4.3145 
 H                     6.8049    4.5138   -2.5775 
 H                     8.3134    7.7325   -1.0688 
 H                     4.3547    2.9911    3.3201 
 H                     4.5176    3.5187    3.7129 
 
                          Input orientation:                          
 ---------------------------------------------------------------------
 Center     Atomic      Atomic             Coordinates (Angstroms)
 Number     Number       Type             X           Y           Z
 ---------------------------------------------------------------------
      1          6           0        4.591600    2.612700    4.314500
      2          1           0        6.804900    4.513800   -2.577500
      3          1           0        8.313400    7.732500   -1.068800
      4          1           0        4.354700    2.991100    3.320100
      5          1           0        4.517600    3.518700    3.712900
 ---------------------------------------------------------------------
                    Distance matrix (angstroms):
                    1          2          3          4          5
     1  C    0.000000
     2  H    7.484153   0.000000
     3  H    8.309276   3.861577   0.000000
     4  H    1.090018   6.565347   7.577244   0.000000
     5  H    1.090062   6.766912   7.418144   0.677636   0.000000
 Stoichiometry    CH4
 Framework group  C1[X(CH4)]
 Deg. of freedom     9
 Full point group                 C1      NOp   1
 Largest Abelian subgroup         C1      NOp   1
 Largest concise Abelian subgroup C1      NOp   1
                         Standard orientation:                         
 ---------------------------------------------------------------------
 Center     Atomic      Atomic             Coordinates (Angstroms)
 Number     Number       Type             X           Y           Z
 ---------------------------------------------------------------------
      1          6           0       -1.706436   -0.039697   -0.129325
      2          1           0        5.497669    1.986975   -0.051813
      3          1           0        6.421894   -1.762367   -0.047316
      4          1           0       -0.841993    0.344646    0.412115
      5          1           0       -0.838952   -0.331072    0.462963
 ---------------------------------------------------------------------
 Rotational constants (GHZ):     63.9455530      4.9300147      4.6231136
 Standard basis: 6-31G (6D, 7F)
 There are    17 symmetry adapted basis functions of A   symmetry.
 Integral buffers will be    131072 words long.
 Raffenetti 2 integral format.
 Two-electron integral symmetry is turned on.
    17 basis functions,    38 primitive gaussians,    17 cartesian basis functions
     5 alpha electrons        5 beta electrons
       nuclear repulsion energy         7.8498686966 Hartrees.
 NAtoms=    5 NActive=    5 NUniq=    5 SFac= 7.50D-01 NAtFMM=   80 NAOKFM=F Big=F
 One-electron integrals computed using PRISM.
 NBasis=    17 RedAO= T  NBF=    17
 NBsUse=    17 1.00D-06 NBFU=    17
 Harris functional with IExCor=  402 diagonalized for initial guess.
 ExpMin= 1.61D-01 ExpMax= 3.05D+03 ExpMxC= 4.57D+02 IAcc=1 IRadAn=         1 AccDes= 0.00D+00
 HarFok:  IExCor=  402 AccDes= 0.00D+00 IRadAn=         1 IDoV= 1
 ScaDFX=  1.000000  1.000000  1.000000  1.000000
 FoFCou: FMM=F IPFlag=           0 FMFlag=      100000 FMFlg1=           0
         NFxFlg=           0 DoJE=T BraDBF=F KetDBF=T FulRan=T
         Omega=  0.000000  0.000000  1.000000  0.000000  0.000000 ICntrl=     500 IOpCl=  0
         NMat0=    1 NMatS0=    1 NMatT0=    0 NMatD0=    1 NMtDS0=    0 NMtDT0=    0
         I1Cent=           4 NGrid=           0.
 Petite list used in FoFCou.
 Initial guess orbital symmetries:
       Occupied  (A) (A) (A) (A) (A)
       Virtual   (A) (A) (A) (A) (A) (A) (A) (A) (A) (A) (A) (A)
 The electronic state of the initial guess is 1-A.
 Requested convergence on RMS density matrix=1.00D-08 within 128 cycles.
 Requested convergence on MAX density matrix=1.00D-06.
 Requested convergence on             energy=1.00D-06.
 No special actions if energy rises.
 Keep R1 ints in memory in canonical form, NReq=932125.
 Integral accuracy reduced to 1.0D-05 until final iterations.
 EnCoef did     6 forward-backward iterations
 Rare condition: small coef for last iteration:  0.000D+00
 Rare condition: small coef for last iteration:  0.000D+00
 EnCoef did   100 forward-backward iterations
 Initial convergence to 1.0D-05 achieved.  Increase integral accuracy.
 SCF Done:  E(RB3LYP) =  -39.8597404246     A.U. after   21 cycles
             Convg  =    0.2093D-08             -V/T =  1.9930

 **********************************************************************

            Population analysis using the SCF density.

 **********************************************************************

 Orbital symmetries:
       Occupied  (A) (A) (A) (A) (A)
       Virtual   (A) (A) (A) (A) (A) (A) (A) (A) (A) (A) (A) (A)
 The electronic state is 1-A.
 Alpha  occ. eigenvalues --  -10.26104  -0.83917  -0.33580  -0.25209  -0.25018
 Alpha virt. eigenvalues --   -0.21847  -0.13194   0.07086   0.18364   0.48956
 Alpha virt. eigenvalues --    0.54285   0.57642   0.61660   0.72854   0.76489
 Alpha virt. eigenvalues --    0.78164   1.08683
          Condensed to atoms (all electrons):
              1          2          3          4          5
     1  C    6.109230   0.000000   0.000000   0.012763   0.012789
     2  H    0.000000   0.993998   0.007174   0.000000   0.000000
     3  H    0.000000   0.007174   0.991654   0.000000   0.000000
     4  H    0.012763   0.000000   0.000000   1.257640  -0.337802
     5  H    0.012789   0.000000   0.000000  -0.337802   1.257631
 Mulliken atomic charges:
              1
     1  C   -0.134781
     2  H   -0.001172
     3  H    0.001172
     4  H    0.067399
     5  H    0.067382
 Sum of Mulliken atomic charges =   0.00000
 Mulliken charges with hydrogens summed into heavy atoms:
              1
     1  C    0.000000
 Sum of Mulliken charges with hydrogens summed into heavy atoms =   0.00000
 Electronic spatial extent (au):  <R**2>=            377.4485
 Charge=              0.0000 electrons
 Dipole moment (field-independent basis, Debye):
    X=              1.7737    Y=              0.0739    Z=              1.1576  Tot=              2.1193
 Quadrupole moment (field-independent basis, Debye-Ang):
   XX=            -14.9907   YY=            -12.1195   ZZ=             -9.2290
   XY=             -0.4119   XZ=             -2.3448   YZ=              0.2003
 Traceless Quadrupole moment (field-independent basis, Debye-Ang):
   XX=             -2.8776   YY=             -0.0064   ZZ=              2.8840
   XY=             -0.4119   XZ=             -2.3448   YZ=              0.2003
 Octapole moment (field-independent basis, Debye-Ang**2):
  XXX=             -3.6644  YYY=             -0.0750  ZZZ=              1.1907  XYY=             -0.4166
  XXY=             -1.0425  XXZ=              5.1344  XZZ=             -6.2254  YZZ=             -0.0936
  YYZ=              0.2746  XYZ=             -0.2515
 Hexadecapole moment (field-independent basis, Debye-Ang**3):
 XXXX=           -730.2888 YYYY=            -73.2145 ZZZZ=            -11.3066 XXXY=            -11.5357
 XXXZ=            -10.5353 YYYX=             -0.3021 YYYZ=              0.2085 ZZZX=             -1.0912
 ZZZY=              0.2478 XXYY=           -128.3338 XXZZ=           -119.8157 YYZZ=            -14.3195
 XXYZ=              0.4754 YYXZ=             -0.4419 ZZXY=              0.0907
 N-N= 7.849868696645D+00 E-N=-1.078119657642D+02  KE= 4.013950532183D+01
 1\1\GINC-YIPU-MIAOS-MACBOOK-PRO\SP\RB3LYP\6-31G\C1H4\MIAO\21-Nov-2011\
 0\\#B3LYP/6-31g\\Dooh H2\\0,1\C,0,4.5916,2.6127,4.3145\H,0,6.8049,4.51
 38,-2.5775\H,0,8.3134,7.7325,-1.0688\H,0,4.3547,2.9911,3.3201\H,0,4.51
 76,3.5187,3.7129\\Version=EM64M-G09RevA.02\State=1-A\HF=-39.8597404\RM
 SD=2.093e-09\Dipole=-0.1215426,0.5230791,-0.6378364\Quadrupole=2.61654
 21,-0.6526859,-1.9638563,-0.7143161,-0.025721,1.291147\PG=C01 [X(C1H4)
 ]\\@


 HE THAT IS UNAWARE OF HIS IGNORANCE WILL BE MISLED BY HIS KNOWLEDGE.

                                        -- WHATLEY
 Job cpu time:  0 days  0 hours  0 minutes  2.5 seconds.
 File lengths (MBytes):  RWF=      5 Int=      0 D2E=      0 Chk=      1 Scr=      1
 Normal termination of Gaussian 09 at Mon Nov 21 15:49:33 2011.
