 Entering Gaussian System, Link 0=g09
 Input=test.gjf
 Output=test.log
 Initial command:
<<<<<<< HEAD
 /Users/miao/Workspace/g09/l1.exe /Users/miao/Workspace/new_quick/example/Gau-16352.inp -scrdir=/Users/miao/Workspace/new_quick/example/
 Entering Link 1 = /Users/miao/Workspace/g09/l1.exe PID=     16353.
=======
 /Users/miao/Workspace/g09/l1.exe /Users/miao/Workspace/new_quick/example/Gau-82581.inp -scrdir=/Users/miao/Workspace/new_quick/example/
 Entering Link 1 = /Users/miao/Workspace/g09/l1.exe PID=     82582.
>>>>>>> cuda_branch
  
 Copyright (c) 1988,1990,1992,1993,1995,1998,2003,2009, Gaussian, Inc.
                  All Rights Reserved.
  
 This is part of the Gaussian(R) 09 program.  It is based on
 the Gaussian(R) 03 system (copyright 2003, Gaussian, Inc.),
 the Gaussian(R) 98 system (copyright 1998, Gaussian, Inc.),
 the Gaussian(R) 94 system (copyright 1995, Gaussian, Inc.),
 the Gaussian 92(TM) system (copyright 1992, Gaussian, Inc.),
 the Gaussian 90(TM) system (copyright 1990, Gaussian, Inc.),
 the Gaussian 88(TM) system (copyright 1988, Gaussian, Inc.),
 the Gaussian 86(TM) system (copyright 1986, Carnegie Mellon
 University), and the Gaussian 82(TM) system (copyright 1983,
 Carnegie Mellon University). Gaussian is a federally registered
 trademark of Gaussian, Inc.
  
 This software contains proprietary and confidential information,
 including trade secrets, belonging to Gaussian, Inc.
  
 This software is provided under written license and may be
 used, copied, transmitted, or stored only in accord with that
 written license.
  
 The following legend is applicable only to US Government
 contracts under FAR:
  
                    RESTRICTED RIGHTS LEGEND
  
 Use, reproduction and disclosure by the US Government is
 subject to restrictions as set forth in subparagraphs (a)
 and (c) of the Commercial Computer Software - Restricted
 Rights clause in FAR 52.227-19.
  
 Gaussian, Inc.
 340 Quinnipiac St., Bldg. 40, Wallingford CT 06492
  
  
 ---------------------------------------------------------------
 Warning -- This program may not be used in any manner that
 competes with the business of Gaussian, Inc. or will provide
 assistance to any competitor of Gaussian, Inc.  The licensee
 of this program is prohibited from giving any competitor of
 Gaussian, Inc. access to this program.  By using this program,
 the user acknowledges that Gaussian, Inc. is engaged in the
 business of creating and licensing software in the field of
 computational chemistry and represents and warrants to the
 licensee that it is not a competitor of Gaussian, Inc. and that
 it will not use this program in any manner prohibited above.
 ---------------------------------------------------------------
  

 Cite this work as:
 Gaussian 09, Revision A.02,
 M. J. Frisch, G. W. Trucks, H. B. Schlegel, G. E. Scuseria, 
 M. A. Robb, J. R. Cheeseman, G. Scalmani, V. Barone, B. Mennucci, 
 G. A. Petersson, H. Nakatsuji, M. Caricato, X. Li, H. P. Hratchian, 
 A. F. Izmaylov, J. Bloino, G. Zheng, J. L. Sonnenberg, M. Hada, 
 M. Ehara, K. Toyota, R. Fukuda, J. Hasegawa, M. Ishida, T. Nakajima, 
 Y. Honda, O. Kitao, H. Nakai, T. Vreven, J. A. Montgomery, Jr., 
 J. E. Peralta, F. Ogliaro, M. Bearpark, J. J. Heyd, E. Brothers, 
 K. N. Kudin, V. N. Staroverov, R. Kobayashi, J. Normand, 
 K. Raghavachari, A. Rendell, J. C. Burant, S. S. Iyengar, J. Tomasi, 
 M. Cossi, N. Rega, J. M. Millam, M. Klene, J. E. Knox, J. B. Cross, 
 V. Bakken, C. Adamo, J. Jaramillo, R. Gomperts, R. E. Stratmann, 
 O. Yazyev, A. J. Austin, R. Cammi, C. Pomelli, J. W. Ochterski, 
 R. L. Martin, K. Morokuma, V. G. Zakrzewski, G. A. Voth, 
 P. Salvador, J. J. Dannenberg, S. Dapprich, A. D. Daniels, 
 O. Farkas, J. B. Foresman, J. V. Ortiz, J. Cioslowski, 
 and D. J. Fox, Gaussian, Inc., Wallingford CT, 2009.
 
 ******************************************
 Gaussian 09:  EM64M-G09RevA.02 11-Jun-2009
<<<<<<< HEAD
                31-Oct-2011 
=======
                 8-Mar-2011 
>>>>>>> cuda_branch
 ******************************************
 ------------------------------------------------
 #p NoSymmetry gfinput HF/CC-PVDZ scf=tight nofmm
 ------------------------------------------------
 1/38=1/1;
 2/12=2,15=1,17=6,18=5,40=1/2;
 3/5=16,11=9,16=1,24=10,25=1,30=1,49=2048/1,2,3;
 4//1;
 5/5=2,32=2,38=5/2;
 6/7=2,8=2,9=2,10=2,28=1/1;
 99/5=1,9=1/99;
<<<<<<< HEAD
 Leave Link    1 at Mon Oct 31 15:12:20 2011, MaxMem=          0 cpu:       0.0
=======
 Leave Link    1 at Tue Mar  8 15:05:58 2011, MaxMem=          0 cpu:       0.0
>>>>>>> cuda_branch
 (Enter /Users/miao/Workspace/g09/l101.exe)
 -----
 water
 -----
 Symbolic Z-matrix:
 Charge =  0 Multiplicity = 1
 H                     0.3032   -0.494     0. 
 H                    -0.3032   -0.9088    0. 
 O                     0.        0.1753    0. 
 H                     0.3032   -0.494     3. 
 H                    -0.3032   -0.9088    3. 
 O                     0.        0.1753    3. 
 H                     0.3032   -0.494     6. 
 H                    -0.3032   -0.9088    6. 
 O                     0.        0.1753    6. 
 H                     0.3032   -0.494     9. 
 H                    -0.3032   -0.9088    9. 
 O                     0.        0.1753    9. 
 
 NAtoms=     12 NQM=     12 NQMF=      0 NMic=      0 NMicF=      0 NTot=     12.
                    Isotopes and Nuclear Properties:
 (Nuclear quadrupole moments (NQMom) in fm**2, nuclear magnetic moments (NMagM)
  in nuclear magnetons)

  Atom         1           2           3           4           5           6           7           8           9          10
 IAtWgt=           1           1          16           1           1          16           1           1          16           1
 AtmWgt=   1.0078250   1.0078250  15.9949146   1.0078250   1.0078250  15.9949146   1.0078250   1.0078250  15.9949146   1.0078250
 NucSpn=           1           1           0           1           1           0           1           1           0           1
 AtZEff=   0.0000000   0.0000000   0.0000000   0.0000000   0.0000000   0.0000000   0.0000000   0.0000000   0.0000000   0.0000000
 NQMom=    0.0000000   0.0000000   0.0000000   0.0000000   0.0000000   0.0000000   0.0000000   0.0000000   0.0000000   0.0000000
 NMagM=    2.7928460   2.7928460   0.0000000   2.7928460   2.7928460   0.0000000   2.7928460   2.7928460   0.0000000   2.7928460

  Atom        11          12
 IAtWgt=           1          16
 AtmWgt=   1.0078250  15.9949146
 NucSpn=           1           0
 AtZEff=   0.0000000   0.0000000
 NQMom=    0.0000000   0.0000000
 NMagM=    2.7928460   0.0000000
<<<<<<< HEAD
 Leave Link  101 at Mon Oct 31 15:12:22 2011, MaxMem=   33554432 cpu:       0.2
=======
 Background charge distribution read from input stream:
 Point Charges:
 XYZ=    1.2000   23.0000    3.4000 Q=    0.3000 A=    0.0000 R=    0.0000 C=    0.0000
 Sum of input charges=            0.300000
              Moments=            0.360000            6.900000            1.020000
 Leave Link  101 at Tue Mar  8 15:05:59 2011, MaxMem=   33554432 cpu:       0.1
>>>>>>> cuda_branch
 (Enter /Users/miao/Workspace/g09/l202.exe)
                          Input orientation:                          
 ---------------------------------------------------------------------
 Center     Atomic      Atomic             Coordinates (Angstroms)
 Number     Number       Type             X           Y           Z
 ---------------------------------------------------------------------
      1          1           0        0.303200   -0.494000    0.000000
      2          1           0       -0.303200   -0.908800    0.000000
      3          8           0        0.000000    0.175300    0.000000
      4          1           0        0.303200   -0.494000    3.000000
      5          1           0       -0.303200   -0.908800    3.000000
      6          8           0        0.000000    0.175300    3.000000
      7          1           0        0.303200   -0.494000    6.000000
      8          1           0       -0.303200   -0.908800    6.000000
      9          8           0        0.000000    0.175300    6.000000
     10          1           0        0.303200   -0.494000    9.000000
     11          1           0       -0.303200   -0.908800    9.000000
     12          8           0        0.000000    0.175300    9.000000
 ---------------------------------------------------------------------
                    Distance matrix (angstroms):
                    1          2          3          4          5
     1  H    0.000000
     2  H    0.734697   0.000000
     3  O    0.734774   1.125701   0.000000
     4  H    3.000000   3.088653   3.088672   0.000000
     5  H    3.088653   3.000000   3.204248   0.734697   0.000000
     6  O    3.088672   3.204248   3.000000   0.734774   1.125701
     7  H    6.000000   6.044814   6.044824   3.000000   3.088653
     8  H    6.044814   6.000000   6.104687   3.088653   3.000000
     9  O    6.044824   6.104687   6.000000   3.088672   3.204248
    10  H    9.000000   9.029938   9.029944   6.000000   6.044814
    11  H    9.029938   9.000000   9.070127   6.044814   6.000000
    12  O    9.029944   9.070127   9.000000   6.044824   6.104687
                    6          7          8          9         10
     6  O    0.000000
     7  H    3.088672   0.000000
     8  H    3.204248   0.734697   0.000000
     9  O    3.000000   0.734774   1.125701   0.000000
    10  H    6.044824   3.000000   3.088653   3.088672   0.000000
    11  H    6.104687   3.088653   3.000000   3.204248   0.734697
    12  O    6.000000   3.088672   3.204248   3.000000   0.734774
                   11         12
    11  H    0.000000
    12  O    1.125701   0.000000
 Symmetry turned off by external request.
 Stoichiometry    H8O4
 Framework group  CS[X(H8O4)]
 Deg. of freedom    15
 Full point group                 CS      NOp   2
 Rotational constants (GHZ):     76.6722974      0.6230272      0.6190522
<<<<<<< HEAD
 Leave Link  202 at Mon Oct 31 15:12:22 2011, MaxMem=   33554432 cpu:       0.0
=======
 Leave Link  202 at Tue Mar  8 15:05:59 2011, MaxMem=   33554432 cpu:       0.0
>>>>>>> cuda_branch
 (Enter /Users/miao/Workspace/g09/l301.exe)
 Standard basis: CC-pVDZ (5D, 7F)
 Ernie: Thresh=  0.10000D-02 Tol=  0.10000D-05 Strict=F.
 Ernie:  8 primitive shells out of 128 were deleted.
 AO basis set in the form of general basis input (Overlap normalization):
      1 0
 S   3 1.00       0.000000000000
      0.1301000000D+02  0.3349872639D-01
      0.1962000000D+01  0.2348008012D+00
      0.4446000000D+00  0.8136829579D+00
 S   1 1.00       0.000000000000
      0.1220000000D+00  0.1000000000D+01
 P   1 1.00       0.000000000000
      0.7270000000D+00  0.1000000000D+01
 ****
      2 0
 S   3 1.00       0.000000000000
      0.1301000000D+02  0.3349872639D-01
      0.1962000000D+01  0.2348008012D+00
      0.4446000000D+00  0.8136829579D+00
 S   1 1.00       0.000000000000
      0.1220000000D+00  0.1000000000D+01
 P   1 1.00       0.000000000000
      0.7270000000D+00  0.1000000000D+01
 ****
      3 0
 S   7 1.00       0.000000000000
      0.1172000000D+05  0.7118644339D-03
      0.1759000000D+04  0.5485201992D-02
      0.4008000000D+03  0.2790992963D-01
      0.1137000000D+03  0.1051332075D+00
      0.3703000000D+02  0.2840024898D+00
      0.1327000000D+02  0.4516739459D+00
      0.5025000000D+01  0.2732081255D+00
 S   7 1.00       0.000000000000
      0.1172000000D+05  0.7690300460D-05
      0.4008000000D+03  0.3134845790D-03
      0.1137000000D+03 -0.2966148530D-02
      0.3703000000D+02 -0.1087535430D-01
      0.1327000000D+02 -0.1207538168D+00
      0.5025000000D+01 -0.1062752639D+00
      0.1013000000D+01  0.1095975478D+01
 S   1 1.00       0.000000000000
      0.3023000000D+00  0.1000000000D+01
 P   3 1.00       0.000000000000
      0.1770000000D+02  0.6267916628D-01
      0.3854000000D+01  0.3335365659D+00
      0.1046000000D+01  0.7412396416D+00
 P   1 1.00       0.000000000000
      0.2753000000D+00  0.1000000000D+01
 D   1 1.00       0.000000000000
      0.1185000000D+01  0.1000000000D+01
 ****
      4 0
 S   3 1.00       0.000000000000
      0.1301000000D+02  0.3349872639D-01
      0.1962000000D+01  0.2348008012D+00
      0.4446000000D+00  0.8136829579D+00
 S   1 1.00       0.000000000000
      0.1220000000D+00  0.1000000000D+01
 P   1 1.00       0.000000000000
      0.7270000000D+00  0.1000000000D+01
 ****
      5 0
 S   3 1.00       0.000000000000
      0.1301000000D+02  0.3349872639D-01
      0.1962000000D+01  0.2348008012D+00
      0.4446000000D+00  0.8136829579D+00
 S   1 1.00       0.000000000000
      0.1220000000D+00  0.1000000000D+01
 P   1 1.00       0.000000000000
      0.7270000000D+00  0.1000000000D+01
 ****
      6 0
 S   7 1.00       0.000000000000
      0.1172000000D+05  0.7118644339D-03
      0.1759000000D+04  0.5485201992D-02
      0.4008000000D+03  0.2790992963D-01
      0.1137000000D+03  0.1051332075D+00
      0.3703000000D+02  0.2840024898D+00
      0.1327000000D+02  0.4516739459D+00
      0.5025000000D+01  0.2732081255D+00
 S   7 1.00       0.000000000000
      0.1172000000D+05  0.7690300460D-05
      0.4008000000D+03  0.3134845790D-03
      0.1137000000D+03 -0.2966148530D-02
      0.3703000000D+02 -0.1087535430D-01
      0.1327000000D+02 -0.1207538168D+00
      0.5025000000D+01 -0.1062752639D+00
      0.1013000000D+01  0.1095975478D+01
 S   1 1.00       0.000000000000
      0.3023000000D+00  0.1000000000D+01
 P   3 1.00       0.000000000000
      0.1770000000D+02  0.6267916628D-01
      0.3854000000D+01  0.3335365659D+00
      0.1046000000D+01  0.7412396416D+00
 P   1 1.00       0.000000000000
      0.2753000000D+00  0.1000000000D+01
 D   1 1.00       0.000000000000
      0.1185000000D+01  0.1000000000D+01
 ****
      7 0
 S   3 1.00       0.000000000000
      0.1301000000D+02  0.3349872639D-01
      0.1962000000D+01  0.2348008012D+00
      0.4446000000D+00  0.8136829579D+00
 S   1 1.00       0.000000000000
      0.1220000000D+00  0.1000000000D+01
 P   1 1.00       0.000000000000
      0.7270000000D+00  0.1000000000D+01
 ****
      8 0
 S   3 1.00       0.000000000000
      0.1301000000D+02  0.3349872639D-01
      0.1962000000D+01  0.2348008012D+00
      0.4446000000D+00  0.8136829579D+00
 S   1 1.00       0.000000000000
      0.1220000000D+00  0.1000000000D+01
 P   1 1.00       0.000000000000
      0.7270000000D+00  0.1000000000D+01
 ****
      9 0
 S   7 1.00       0.000000000000
      0.1172000000D+05  0.7118644339D-03
      0.1759000000D+04  0.5485201992D-02
      0.4008000000D+03  0.2790992963D-01
      0.1137000000D+03  0.1051332075D+00
      0.3703000000D+02  0.2840024898D+00
      0.1327000000D+02  0.4516739459D+00
      0.5025000000D+01  0.2732081255D+00
 S   7 1.00       0.000000000000
      0.1172000000D+05  0.7690300460D-05
      0.4008000000D+03  0.3134845790D-03
      0.1137000000D+03 -0.2966148530D-02
      0.3703000000D+02 -0.1087535430D-01
      0.1327000000D+02 -0.1207538168D+00
      0.5025000000D+01 -0.1062752639D+00
      0.1013000000D+01  0.1095975478D+01
 S   1 1.00       0.000000000000
      0.3023000000D+00  0.1000000000D+01
 P   3 1.00       0.000000000000
      0.1770000000D+02  0.6267916628D-01
      0.3854000000D+01  0.3335365659D+00
      0.1046000000D+01  0.7412396416D+00
 P   1 1.00       0.000000000000
      0.2753000000D+00  0.1000000000D+01
 D   1 1.00       0.000000000000
      0.1185000000D+01  0.1000000000D+01
 ****
     10 0
 S   3 1.00       0.000000000000
      0.1301000000D+02  0.3349872639D-01
      0.1962000000D+01  0.2348008012D+00
      0.4446000000D+00  0.8136829579D+00
 S   1 1.00       0.000000000000
      0.1220000000D+00  0.1000000000D+01
 P   1 1.00       0.000000000000
      0.7270000000D+00  0.1000000000D+01
 ****
     11 0
 S   3 1.00       0.000000000000
      0.1301000000D+02  0.3349872639D-01
      0.1962000000D+01  0.2348008012D+00
      0.4446000000D+00  0.8136829579D+00
 S   1 1.00       0.000000000000
      0.1220000000D+00  0.1000000000D+01
 P   1 1.00       0.000000000000
      0.7270000000D+00  0.1000000000D+01
 ****
     12 0
 S   7 1.00       0.000000000000
      0.1172000000D+05  0.7118644339D-03
      0.1759000000D+04  0.5485201992D-02
      0.4008000000D+03  0.2790992963D-01
      0.1137000000D+03  0.1051332075D+00
      0.3703000000D+02  0.2840024898D+00
      0.1327000000D+02  0.4516739459D+00
      0.5025000000D+01  0.2732081255D+00
 S   7 1.00       0.000000000000
      0.1172000000D+05  0.7690300460D-05
      0.4008000000D+03  0.3134845790D-03
      0.1137000000D+03 -0.2966148530D-02
      0.3703000000D+02 -0.1087535430D-01
      0.1327000000D+02 -0.1207538168D+00
      0.5025000000D+01 -0.1062752639D+00
      0.1013000000D+01  0.1095975478D+01
 S   1 1.00       0.000000000000
      0.3023000000D+00  0.1000000000D+01
 P   3 1.00       0.000000000000
      0.1770000000D+02  0.6267916628D-01
      0.3854000000D+01  0.3335365659D+00
      0.1046000000D+01  0.7412396416D+00
 P   1 1.00       0.000000000000
      0.2753000000D+00  0.1000000000D+01
 D   1 1.00       0.000000000000
      0.1185000000D+01  0.1000000000D+01
 ****

 Integral buffers will be    131072 words long.
 Raffenetti 1 integral format.
 Two-electron integral symmetry is turned off.
    96 basis functions,   188 primitive gaussians,   100 cartesian basis functions
    20 alpha electrons       20 beta electrons
       nuclear repulsion energy       116.5107697389 Hartrees.
 IExCor=    0 DFT=F Ex=HF Corr=None ExCW=0 ScaHFX=  1.000000
 ScaDFX=  1.000000  1.000000  1.000000  1.000000 ScalE2=  1.000000  1.000000
 IRadAn=      0 IRanWt=     -1 IRanGd=            0 ICorTp=0
<<<<<<< HEAD
 Leave Link  301 at Mon Oct 31 15:12:23 2011, MaxMem=   33554432 cpu:       0.1
=======
 Background charge distribution read from rwf.
 FoFCou: FMM=F IPFlag=           0 FMFlag=      100000 FMFlg1=         800
         NFxFlg=           0 DoJE=F BraDBF=T KetDBF=T FulRan=T
         Omega=  0.000000  0.000000  1.000000  0.000000  0.000000 ICntrl=    1100 IOpCl=  0
         NMat0=    1 NMatS0=    1 NMatT0=    0 NMatD0=    1 NMtDS0=    0 NMtDT0=    0
         I1Cent=    10001006 NGrid=          13.
 Symmetry not used in FoFCou.
 Self energy of the charges =         0.0000000000 a.u.
 MM   energy of the charges =         0.0000000000 a.u.
 Nuclei-charges interaction =         0.2726397566 a.u.
 Nuclear repulsion after external point charges =      116.7834094956 Hartrees.
 Leave Link  301 at Tue Mar  8 15:06:00 2011, MaxMem=   33554432 cpu:       0.1
>>>>>>> cuda_branch
 (Enter /Users/miao/Workspace/g09/l302.exe)
 NPDir=0 NMtPBC=     1 NCelOv=     1 NCel=       1 NClECP=     1 NCelD=      1
         NCelK=      1 NCelE2=     1 NClLst=     1 CellRange=     0.0.
 One-electron integrals computed using PRISM.
<<<<<<< HEAD
 NBasis=    96 RedAO= T  NBF=    96
 NBsUse=    96 1.00D-06 NBFU=    96
 Leave Link  302 at Mon Oct 31 15:12:25 2011, MaxMem=   33554432 cpu:       0.2
 (Enter /Users/miao/Workspace/g09/l303.exe)
 DipDrv:  MaxL=1.
 Leave Link  303 at Mon Oct 31 15:12:26 2011, MaxMem=   33554432 cpu:       0.1
=======
 NBasis=    28 RedAO= T  NBF=    28
 NBsUse=    28 1.00D-06 NBFU=    28
 Leave Link  302 at Tue Mar  8 15:06:01 2011, MaxMem=   33554432 cpu:       0.2
 (Enter /Users/miao/Workspace/g09/l303.exe)
 DipDrv:  MaxL=1.
 Leave Link  303 at Tue Mar  8 15:06:01 2011, MaxMem=   33554432 cpu:       0.0
>>>>>>> cuda_branch
 (Enter /Users/miao/Workspace/g09/l401.exe)
 Harris functional with IExCor=  205 diagonalized for initial guess.
 ExpMin= 1.22D-01 ExpMax= 1.17D+04 ExpMxC= 4.01D+02 IAcc=1 IRadAn=         1 AccDes= 0.00D+00
 HarFok:  IExCor=  205 AccDes= 0.00D+00 IRadAn=         1 IDoV= 1
 ScaDFX=  1.000000  1.000000  1.000000  1.000000
 FoFCou: FMM=F IPFlag=           0 FMFlag=      100000 FMFlg1=         800
         NFxFlg=           0 DoJE=T BraDBF=F KetDBF=T FulRan=T
         Omega=  0.000000  0.000000  1.000000  0.000000  0.000000 ICntrl=     500 IOpCl=  0
         NMat0=    1 NMatS0=    1 NMatT0=    0 NMatD0=    1 NMtDS0=    0 NMtDT0=    0
         I1Cent=           4 NGrid=           0.
 Symmetry not used in FoFCou.
<<<<<<< HEAD
 Harris En= -303.560826882601    
 Leave Link  401 at Mon Oct 31 15:12:28 2011, MaxMem=   33554432 cpu:       0.5
=======
 Harris En= -298.850471827722    
 Leave Link  401 at Tue Mar  8 15:06:02 2011, MaxMem=   33554432 cpu:       0.3
>>>>>>> cuda_branch
 (Enter /Users/miao/Workspace/g09/l502.exe)
 Closed shell SCF:
 Requested convergence on RMS density matrix=1.00D-08 within 128 cycles.
 Requested convergence on MAX density matrix=1.00D-06.
 Requested convergence on             energy=1.00D-06.
 No special actions if energy rises.
 Using DIIS extrapolation, IDIIS=  1040.
 Two-electron integral symmetry not used.
 Keep R1 ints in memory in canonical form, NReq=13623159.
 IEnd=       49370 IEndB=       49370 NGot=    33554432 MDV=    20778000
 LenX=    20778000 LenY=    20767559
 Symmetry not used in FoFDir.
 MinBra= 0 MaxBra= 2 Meth= 1.
 IRaf=       0 NMat=   1 IRICut=       1 DoRegI=T DoRafI=F ISym2E= 0 JSym2E=0.

 Cycle   1  Pass 1  IDiag  1:
 E= -302.541034127776    
 DIIS: error= 6.27D-02 at cycle   1 NSaved=   1.
 NSaved= 1 IEnMin= 1 EnMin= -302.541034127776     IErMin= 1 ErrMin= 6.27D-02
 ErrMax= 6.27D-02 EMaxC= 1.00D-01 BMatC= 6.77D-01 BMatP= 6.77D-01
 IDIUse=3 WtCom= 3.73D-01 WtEn= 6.27D-01
 Coeff-Com:  0.100D+01
 Coeff-En:   0.100D+01
 Coeff:      0.100D+01
 Gap=     0.386 Goal=   None    Shift=    0.000
 GapD=    0.386 DampG=1.000 DampE=0.500 DampFc=0.5000 IDamp=-1.
 Damping current iteration by 5.00D-01
 RMSDP=9.98D-03 MaxDP=1.52D-01              OVMax= 1.85D-01

 Cycle   2  Pass 1  IDiag  1:
 E= -302.809964012737     Delta-E=       -0.268929884961 Rises=F Damp=T
 DIIS: error= 2.13D-02 at cycle   2 NSaved=   2.
 NSaved= 2 IEnMin= 2 EnMin= -302.809964012737     IErMin= 2 ErrMin= 2.13D-02
 ErrMax= 2.13D-02 EMaxC= 1.00D-01 BMatC= 4.89D-02 BMatP= 6.77D-01
 IDIUse=3 WtCom= 7.87D-01 WtEn= 2.13D-01
 Coeff-Com: -0.223D+00 0.122D+01
 Coeff-En:   0.000D+00 0.100D+01
 Coeff:     -0.176D+00 0.118D+01
 Gap=     0.543 Goal=   None    Shift=    0.000
 RMSDP=1.43D-03 MaxDP=2.87D-02 DE=-2.69D-01 OVMax= 7.03D-02

 Cycle   3  Pass 1  IDiag  1:
 E= -303.041097140669     Delta-E=       -0.231133127932 Rises=F Damp=F
 DIIS: error= 2.12D-03 at cycle   3 NSaved=   3.
 NSaved= 3 IEnMin= 3 EnMin= -303.041097140669     IErMin= 3 ErrMin= 2.12D-03
 ErrMax= 2.12D-03 EMaxC= 1.00D-01 BMatC= 1.26D-03 BMatP= 4.89D-02
 IDIUse=3 WtCom= 9.79D-01 WtEn= 2.12D-02
 Coeff-Com:  0.479D-01-0.182D+00 0.113D+01
 Coeff-En:   0.000D+00 0.000D+00 0.100D+01
 Coeff:      0.468D-01-0.179D+00 0.113D+01
 Gap=     0.560 Goal=   None    Shift=    0.000
 RMSDP=3.91D-04 MaxDP=5.44D-03 DE=-2.31D-01 OVMax= 9.62D-03

 Cycle   4  Pass 1  IDiag  1:
 E= -303.043152059510     Delta-E=       -0.002054918841 Rises=F Damp=F
 DIIS: error= 1.10D-03 at cycle   4 NSaved=   4.
 NSaved= 4 IEnMin= 4 EnMin= -303.043152059510     IErMin= 4 ErrMin= 1.10D-03
 ErrMax= 1.10D-03 EMaxC= 1.00D-01 BMatC= 1.39D-04 BMatP= 1.26D-03
 IDIUse=3 WtCom= 9.89D-01 WtEn= 1.10D-02
 Coeff-Com:  0.554D-03 0.764D-02-0.305D+00 0.130D+01
 Coeff-En:   0.000D+00 0.000D+00 0.000D+00 0.100D+01
 Coeff:      0.548D-03 0.756D-02-0.301D+00 0.129D+01
 Gap=     0.567 Goal=   None    Shift=    0.000
 RMSDP=1.84D-04 MaxDP=2.85D-03 DE=-2.05D-03 OVMax= 5.26D-03

 Cycle   5  Pass 1  IDiag  1:
 E= -303.043467470850     Delta-E=       -0.000315411340 Rises=F Damp=F
 DIIS: error= 3.40D-04 at cycle   5 NSaved=   5.
 NSaved= 5 IEnMin= 5 EnMin= -303.043467470850     IErMin= 5 ErrMin= 3.40D-04
 ErrMax= 3.40D-04 EMaxC= 1.00D-01 BMatC= 1.96D-05 BMatP= 1.39D-04
 IDIUse=3 WtCom= 9.97D-01 WtEn= 3.40D-03
 Coeff-Com: -0.251D-02 0.145D-01-0.163D+00 0.267D+00 0.885D+00
 Coeff-En:   0.000D+00 0.000D+00 0.000D+00 0.000D+00 0.100D+01
 Coeff:     -0.250D-02 0.145D-01-0.163D+00 0.266D+00 0.885D+00
 Gap=     0.567 Goal=   None    Shift=    0.000
 RMSDP=6.15D-05 MaxDP=9.37D-04 DE=-3.15D-04 OVMax= 1.90D-03

 Cycle   6  Pass 1  IDiag  1:
 E= -303.043502807726     Delta-E=       -0.000035336876 Rises=F Damp=F
 DIIS: error= 1.55D-04 at cycle   6 NSaved=   6.
 NSaved= 6 IEnMin= 6 EnMin= -303.043502807726     IErMin= 6 ErrMin= 1.55D-04
 ErrMax= 1.55D-04 EMaxC= 1.00D-01 BMatC= 2.23D-06 BMatP= 1.96D-05
 IDIUse=3 WtCom= 9.98D-01 WtEn= 1.55D-03
 Coeff-Com:  0.969D-03-0.355D-02 0.469D-01-0.186D+00 0.758D-03 0.114D+01
 Coeff-En:   0.000D+00 0.000D+00 0.000D+00 0.000D+00 0.000D+00 0.100D+01
 Coeff:      0.968D-03-0.355D-02 0.468D-01-0.186D+00 0.757D-03 0.114D+01
 Gap=     0.568 Goal=   None    Shift=    0.000
 RMSDP=2.97D-05 MaxDP=3.55D-04 DE=-3.53D-05 OVMax= 9.81D-04

 Cycle   7  Pass 1  IDiag  1:
 E= -303.043508698616     Delta-E=       -0.000005890891 Rises=F Damp=F
 DIIS: error= 6.16D-05 at cycle   7 NSaved=   7.
 NSaved= 7 IEnMin= 7 EnMin= -303.043508698616     IErMin= 7 ErrMin= 6.16D-05
 ErrMax= 6.16D-05 EMaxC= 1.00D-01 BMatC= 1.90D-07 BMatP= 2.23D-06
 IDIUse=1 WtCom= 1.00D+00 WtEn= 0.00D+00
 Coeff-Com:  0.562D-03-0.201D-02 0.154D-01-0.204D-01-0.884D-01-0.712D-01
 Coeff-Com:  0.117D+01
 Coeff:      0.562D-03-0.201D-02 0.154D-01-0.204D-01-0.884D-01-0.712D-01
 Coeff:      0.117D+01
 Gap=     0.568 Goal=   None    Shift=    0.000
 RMSDP=9.66D-06 MaxDP=1.10D-04 DE=-5.89D-06 OVMax= 3.21D-04

 Cycle   8  Pass 1  IDiag  1:
 E= -303.043509297733     Delta-E=       -0.000000599117 Rises=F Damp=F
 DIIS: error= 1.97D-05 at cycle   8 NSaved=   8.
 NSaved= 8 IEnMin= 8 EnMin= -303.043509297733     IErMin= 8 ErrMin= 1.97D-05
 ErrMax= 1.97D-05 EMaxC= 1.00D-01 BMatC= 1.83D-08 BMatP= 1.90D-07
 IDIUse=1 WtCom= 1.00D+00 WtEn= 0.00D+00
 Coeff-Com: -0.308D-03 0.130D-02-0.128D-01 0.300D-01 0.476D-01-0.740D-01
 Coeff-Com: -0.614D+00 0.162D+01
 Coeff:     -0.308D-03 0.130D-02-0.128D-01 0.300D-01 0.476D-01-0.740D-01
 Coeff:     -0.614D+00 0.162D+01
 Gap=     0.568 Goal=   None    Shift=    0.000
 RMSDP=3.94D-06 MaxDP=5.09D-05 DE=-5.99D-07 OVMax= 1.00D-04

 Cycle   9  Pass 1  IDiag  1:
 E= -303.043509367763     Delta-E=       -0.000000070030 Rises=F Damp=F
 DIIS: error= 1.99D-06 at cycle   9 NSaved=   9.
 NSaved= 9 IEnMin= 9 EnMin= -303.043509367763     IErMin= 9 ErrMin= 1.99D-06
 ErrMax= 1.99D-06 EMaxC= 1.00D-01 BMatC= 5.66D-10 BMatP= 1.83D-08
 IDIUse=1 WtCom= 1.00D+00 WtEn= 0.00D+00
 Coeff-Com:  0.434D-04-0.225D-03 0.251D-02-0.599D-02-0.113D-01 0.164D-01
 Coeff-Com:  0.159D+00-0.512D+00 0.135D+01
 Coeff:      0.434D-04-0.225D-03 0.251D-02-0.599D-02-0.113D-01 0.164D-01
 Coeff:      0.159D+00-0.512D+00 0.135D+01
 Gap=     0.568 Goal=   None    Shift=    0.000
 RMSDP=7.28D-07 MaxDP=8.66D-06 DE=-7.00D-08 OVMax= 1.23D-05

 Cycle  10  Pass 1  IDiag  1:
 E= -303.043509369186     Delta-E=       -0.000000001423 Rises=F Damp=F
 DIIS: error= 3.83D-07 at cycle  10 NSaved=  10.
 NSaved=10 IEnMin=10 EnMin= -303.043509369186     IErMin=10 ErrMin= 3.83D-07
 ErrMax= 3.83D-07 EMaxC= 1.00D-01 BMatC= 1.47D-11 BMatP= 5.66D-10
 IDIUse=1 WtCom= 1.00D+00 WtEn= 0.00D+00
 Coeff-Com:  0.178D-06 0.157D-04-0.218D-03 0.484D-03 0.151D-02-0.143D-02
 Coeff-Com: -0.241D-01 0.838D-01-0.341D+00 0.128D+01
 Coeff:      0.178D-06 0.157D-04-0.218D-03 0.484D-03 0.151D-02-0.143D-02
 Coeff:     -0.241D-01 0.838D-01-0.341D+00 0.128D+01
 Gap=     0.568 Goal=   None    Shift=    0.000
 RMSDP=1.11D-07 MaxDP=1.45D-06 DE=-1.42D-09 OVMax= 1.96D-06

 Cycle  11  Pass 1  IDiag  1:
 E= -303.043509369224     Delta-E=       -0.000000000038 Rises=F Damp=F
 DIIS: error= 6.92D-08 at cycle  11 NSaved=  11.
 NSaved=11 IEnMin=11 EnMin= -303.043509369224     IErMin=11 ErrMin= 6.92D-08
 ErrMax= 6.92D-08 EMaxC= 1.00D-01 BMatC= 8.11D-13 BMatP= 1.47D-11
 IDIUse=1 WtCom= 1.00D+00 WtEn= 0.00D+00
 Coeff-Com: -0.122D-05 0.923D-06-0.663D-05 0.350D-04-0.130D-03-0.315D-04
 Coeff-Com:  0.266D-02-0.113D-01 0.704D-01-0.456D+00 0.139D+01
 Coeff:     -0.122D-05 0.923D-06-0.663D-05 0.350D-04-0.130D-03-0.315D-04
 Coeff:      0.266D-02-0.113D-01 0.704D-01-0.456D+00 0.139D+01
 Gap=     0.568 Goal=   None    Shift=    0.000
 RMSDP=2.62D-08 MaxDP=3.65D-07 DE=-3.77D-11 OVMax= 7.85D-07

 Cycle  12  Pass 1  IDiag  1:
 E= -303.043509369225     Delta-E=       -0.000000000001 Rises=F Damp=F
 DIIS: error= 3.34D-08 at cycle  12 NSaved=  12.
 NSaved=12 IEnMin=12 EnMin= -303.043509369225     IErMin=12 ErrMin= 3.34D-08
 ErrMax= 3.34D-08 EMaxC= 1.00D-01 BMatC= 8.99D-14 BMatP= 8.11D-13
 IDIUse=1 WtCom= 1.00D+00 WtEn= 0.00D+00
 Coeff-Com:  0.439D-06-0.127D-05 0.146D-04-0.403D-04-0.358D-04 0.960D-04
 Coeff-Com:  0.412D-03-0.764D-03-0.473D-02 0.846D-01-0.467D+00 0.139D+01
 Coeff:      0.439D-06-0.127D-05 0.146D-04-0.403D-04-0.358D-04 0.960D-04
 Coeff:      0.412D-03-0.764D-03-0.473D-02 0.846D-01-0.467D+00 0.139D+01
 Gap=     0.568 Goal=   None    Shift=    0.000
 RMSDP=7.81D-09 MaxDP=1.79D-07 DE=-1.48D-12 OVMax= 3.41D-07

<<<<<<< HEAD
 SCF Done:  E(RHF) =  -303.043509369     A.U. after   12 cycles
             Convg  =    0.7813D-08             -V/T =  1.9892
 KE= 3.063535972674D+02 PE=-9.551374760932D+02 EE= 2.292295997176D+02
 Leave Link  502 at Mon Oct 31 15:12:37 2011, MaxMem=   33554432 cpu:       1.4
=======
 SCF Done:  E(RHF) =  -298.384888379     A.U. after   12 cycles
             Convg  =    0.1698D-08             -V/T =  1.9914
 KE= 3.009646860377D+02 PE=-9.461833969313D+02 EE= 2.300504130193D+02
 Leave Link  502 at Tue Mar  8 15:06:04 2011, MaxMem=   33554432 cpu:       0.1
>>>>>>> cuda_branch
 (Enter /Users/miao/Workspace/g09/l601.exe)
 Copying SCF densities to generalized density rwf, IOpCl= 0 IROHF=0.

 **********************************************************************

            Population analysis using the SCF density.

 **********************************************************************

 Alpha  occ. eigenvalues --  -20.55733 -20.55733 -20.55533 -20.55532  -1.46908
 Alpha  occ. eigenvalues --   -1.46859  -1.46646  -1.46447  -0.71591  -0.71510
 Alpha  occ. eigenvalues --   -0.71129  -0.70750  -0.55072  -0.54877  -0.54431
 Alpha  occ. eigenvalues --   -0.53969  -0.53159  -0.51937  -0.50091  -0.48326
 Alpha virt. eigenvalues --    0.08459   0.10388   0.13232   0.16074   0.26035
 Alpha virt. eigenvalues --    0.28184   0.31932   0.36585   0.57281   0.58656
 Alpha virt. eigenvalues --    0.61934   0.67575   0.96224   0.97564   0.99340
 Alpha virt. eigenvalues --    1.02454   1.03677   1.09777   1.10560   1.13280
 Alpha virt. eigenvalues --    1.13442   1.17790   1.25329   1.26408   1.27002
 Alpha virt. eigenvalues --    1.27949   1.28848   1.30863   1.31703   1.33475
 Alpha virt. eigenvalues --    1.37263   1.49635   1.64629   1.64953   1.65736
 Alpha virt. eigenvalues --    1.67295   1.93428   1.93958   1.94313   1.94724
 Alpha virt. eigenvalues --    1.94771   1.94850   1.95872   1.97080   1.98151
 Alpha virt. eigenvalues --    2.00408   2.03410   2.06306   2.88340   2.88531
 Alpha virt. eigenvalues --    2.89030   2.89632   3.08256   3.08268   3.08574
 Alpha virt. eigenvalues --    3.08775   3.10126   3.10582   3.11546   3.12980
 Alpha virt. eigenvalues --    3.54385   3.55273   3.57132   3.59717   3.62640
 Alpha virt. eigenvalues --    3.65803   3.69565   3.72933   3.88112   3.88569
 Alpha virt. eigenvalues --    3.89372   3.90265   4.57316   4.58491   4.60300
 Alpha virt. eigenvalues --    4.62127
          Condensed to atoms (all electrons):
              1          2          3          4          5          6
     1  H    0.721126  -0.043391   0.367363   0.000548  -0.000386   0.003497
     2  H   -0.043391   0.702608   0.133942  -0.000320   0.000657   0.000514
     3  O    0.367363   0.133942   7.652540   0.003611   0.000514  -0.000802
     4  H    0.000548  -0.000320   0.003611   0.732812  -0.049404   0.361294
     5  H   -0.000386   0.000657   0.000514  -0.049404   0.728421   0.130750
     6  O    0.003497   0.000514  -0.000802   0.361294   0.130750   7.637895
     7  H   -0.000001   0.000000   0.000000   0.000690  -0.000362   0.003494
     8  H    0.000000   0.000000   0.000000  -0.000362   0.000651   0.000536
     9  O    0.000000   0.000000   0.000000   0.003494   0.000536  -0.000851
    10  H    0.000000   0.000000   0.000000  -0.000001   0.000000   0.000000
    11  H    0.000000   0.000000   0.000000   0.000000   0.000000   0.000000
    12  O    0.000000   0.000000   0.000000   0.000000   0.000000   0.000000
              7          8          9         10         11         12
     1  H   -0.000001   0.000000   0.000000   0.000000   0.000000   0.000000
     2  H    0.000000   0.000000   0.000000   0.000000   0.000000   0.000000
     3  O    0.000000   0.000000   0.000000   0.000000   0.000000   0.000000
     4  H    0.000690  -0.000362   0.003494  -0.000001   0.000000   0.000000
     5  H   -0.000362   0.000651   0.000536   0.000000   0.000000   0.000000
     6  O    0.003494   0.000536  -0.000851   0.000000   0.000000   0.000000
     7  H    0.732812  -0.049404   0.361294   0.000548  -0.000320   0.003611
     8  H   -0.049404   0.728421   0.130750  -0.000386   0.000657   0.000514
     9  O    0.361294   0.130750   7.637895   0.003497   0.000514  -0.000802
    10  H    0.000548  -0.000386   0.003497   0.721126  -0.043391   0.367363
    11  H   -0.000320   0.000657   0.000514  -0.043391   0.702608   0.133942
    12  O    0.003611   0.000514  -0.000802   0.367363   0.133942   7.652540
 Mulliken atomic charges:
              1
     1  H   -0.048757
     2  H    0.205989
     3  O   -0.157167
     4  H   -0.052362
     5  H    0.188623
     6  O   -0.136327
     7  H   -0.052362
     8  H    0.188623
     9  O   -0.136327
    10  H   -0.048757
    11  H    0.205989
    12  O   -0.157167
 Sum of Mulliken atomic charges =   0.00000
 Mulliken charges with hydrogens summed into heavy atoms:
              1
     3  O    0.000065
     6  O   -0.000065
     9  O   -0.000065
    12  O    0.000065
 Sum of Mulliken charges with hydrogens summed into heavy atoms =   0.00000
 Electronic spatial extent (au):  <R**2>=           4574.1981
 Charge=              0.0000 electrons
 Dipole moment (field-independent basis, Debye):
    X=              1.1210    Y=            -10.1523    Z=              0.0000  Tot=             10.2140
 Quadrupole moment (field-independent basis, Debye-Ang):
   XX=            -26.0608   YY=            -17.3686   ZZ=            -28.1734
   XY=              0.3592   XZ=              5.0445   YZ=            -45.6851
 Traceless Quadrupole moment (field-independent basis, Debye-Ang):
   XX=             -2.1932   YY=              6.4990   ZZ=             -4.3058
   XY=              0.3592   XZ=              5.0445   YZ=            -45.6851
 Octapole moment (field-independent basis, Debye-Ang**2):
  XXX=              2.1682  YYY=             -8.3375  ZZZ=           -380.3409  XYY=              0.0207
  XXY=             -1.3971  XXZ=           -117.2738  XZZ=             35.6755  YZZ=           -323.3670
  YYZ=            -78.1585  XYZ=              1.6162
 Hexadecapole moment (field-independent basis, Debye-Ang**3):
 XXXX=            -22.2032 YYYY=            -26.5300 ZZZZ=          -5332.8904 XXXY=             -2.2557
 XXXZ=              9.7570 YYYX=             -0.9713 YYYZ=            -37.5187 ZZZX=            277.3168
 ZZZY=          -2515.2059 XXYY=             -8.6011 XXZZ=           -827.7423 YYZZ=           -554.9230
 XXYZ=             -6.2868 YYXZ=              0.0932 ZZXY=             10.9405
 N-N= 1.165107697389D+02 E-N=-9.551374759504D+02  KE= 3.063535972674D+02
 No NMR shielding tensors so no spin-rotation constants.
<<<<<<< HEAD
 Leave Link  601 at Mon Oct 31 15:12:39 2011, MaxMem=   33554432 cpu:       0.2
 (Enter /Users/miao/Workspace/g09/l9999.exe)
 1\1\GINC-QTPCLNT135\SP\RHF\CC-pVDZ\H8O4\MIAO\31-Oct-2011\0\\#p NoSymme
 try gfinput HF/CC-PVDZ scf=tight nofmm\\water\\0,1\H,0,0.3032,-0.494,0
 .\H,0,-0.3032,-0.9088,0.\O,0,0.,0.1753,0.\H,0,0.3032,-0.494,3.\H,0,-0.
 3032,-0.9088,3.\O,0,0.,0.1753,3.\H,0,0.3032,-0.494,6.\H,0,-0.3032,-0.9
 088,6.\O,0,0.,0.1753,6.\H,0,0.3032,-0.494,9.\H,0,-0.3032,-0.9088,9.\O,
 0,0.,0.1753,9.\\Version=EM64M-G09RevA.02\HF=-303.0435094\RMSD=7.813e-0
 9\Dipole=0.4410346,-3.9942039,0.\Quadrupole=-1.6306186,4.8318779,-3.20
 12593,0.2670218,3.7504557,-33.9657815\PG=CS [X(H8O4)]\\@


 THE REASON MAN'S BEST FRIEND IS A DOG IS BECAUSE
 HE WAGS HIS TAIL INSTEAD OF HIS TONGUE.
 Job cpu time:  0 days  0 hours  0 minutes  2.8 seconds.
 File lengths (MBytes):  RWF=      9 Int=      0 D2E=      0 Chk=      1 Scr=      1
 Normal termination of Gaussian 09 at Mon Oct 31 15:12:39 2011.
=======
 Leave Link  601 at Tue Mar  8 15:06:04 2011, MaxMem=   33554432 cpu:       0.1
 (Enter /Users/miao/Workspace/g09/l9999.exe)

 Test job not archived.
 1\1\GINC-QTPCLNT135\SP\RHF\STO-3G\H8O4\MIAO\08-Mar-2011\0\\#p charge N
 oSymmetry gfinput HF/sto-3g scf=tight nofmm\\water\\0,1\H,0,0.3032,-0.
 494,0.\H,0,-0.3032,-0.9088,0.\O,0,0.,0.1753,0.\H,0,0.3032,-0.494,3.\H,
 0,-0.3032,-0.9088,3.\O,0,0.,0.1753,3.\H,0,0.3032,-0.494,6.\H,0,-0.3032
 ,-0.9088,6.\O,0,0.,0.1753,6.\H,0,0.3032,-0.494,9.\H,0,-0.3032,-0.9088,
 9.\O,0,0.,0.1753,9.\\Version=EM64M-G09RevA.02\HF=-298.3848884\RMSD=1.6
 98e-09\Dipole=0.6269663,-3.0414678,0.0000008\Quadrupole=-0.7989868,2.4
 693259,-1.6703392,0.2250114,5.331682,-25.8634995\PG=CS [X(H8O4)]\\@


 Fatherhood is pretending the present you love most is soap-on-a-rope.
 -- Bill Cosby
 Job cpu time:  0 days  0 hours  0 minutes  1.3 seconds.
 File lengths (MBytes):  RWF=      5 Int=      0 D2E=      0 Chk=      1 Scr=      1
 Normal termination of Gaussian 09 at Tue Mar  8 15:06:05 2011.
>>>>>>> cuda_branch
