 Entering Gaussian System, Link 0=g09
 Input=test3.gjf
 Output=test3.log
 Files in the Gaussian directory are world accessible.
 This must be fixed.
