 Entering Gaussian System, Link 0=g09
 Input=water1.gjf
 Output=water1.log
 Files in the Gaussian directory are world accessible.
 This must be fixed.
