 Entering Gaussian System, Link 0=g09
 Input=water150.gjf
 Output=water150.log
 Files in the Gaussian directory are world accessible.
 This must be fixed.
