 Entering Gaussian System, Link 0=g09
 Input=water150.gjf
 Output=water150.log
 Initial command:
 /Users/miao/Workspace/g09/l1.exe /Users/miao/Workspace/new_quick/example/Gau-6042.inp -scrdir=/Users/miao/Workspace/new_quick/example/
 Entering Link 1 = /Users/miao/Workspace/g09/l1.exe PID=      6043.
  
 Copyright (c) 1988,1990,1992,1993,1995,1998,2003,2009, Gaussian, Inc.
                  All Rights Reserved.
  
 This is part of the Gaussian(R) 09 program.  It is based on
 the Gaussian(R) 03 system (copyright 2003, Gaussian, Inc.),
 the Gaussian(R) 98 system (copyright 1998, Gaussian, Inc.),
 the Gaussian(R) 94 system (copyright 1995, Gaussian, Inc.),
 the Gaussian 92(TM) system (copyright 1992, Gaussian, Inc.),
 the Gaussian 90(TM) system (copyright 1990, Gaussian, Inc.),
 the Gaussian 88(TM) system (copyright 1988, Gaussian, Inc.),
 the Gaussian 86(TM) system (copyright 1986, Carnegie Mellon
 University), and the Gaussian 82(TM) system (copyright 1983,
 Carnegie Mellon University). Gaussian is a federally registered
 trademark of Gaussian, Inc.
  
 This software contains proprietary and confidential information,
 including trade secrets, belonging to Gaussian, Inc.
  
 This software is provided under written license and may be
 used, copied, transmitted, or stored only in accord with that
 written license.
  
 The following legend is applicable only to US Government
 contracts under FAR:
  
                    RESTRICTED RIGHTS LEGEND
  
 Use, reproduction and disclosure by the US Government is
 subject to restrictions as set forth in subparagraphs (a)
 and (c) of the Commercial Computer Software - Restricted
 Rights clause in FAR 52.227-19.
  
 Gaussian, Inc.
 340 Quinnipiac St., Bldg. 40, Wallingford CT 06492
  
  
 ---------------------------------------------------------------
 Warning -- This program may not be used in any manner that
 competes with the business of Gaussian, Inc. or will provide
 assistance to any competitor of Gaussian, Inc.  The licensee
 of this program is prohibited from giving any competitor of
 Gaussian, Inc. access to this program.  By using this program,
 the user acknowledges that Gaussian, Inc. is engaged in the
 business of creating and licensing software in the field of
 computational chemistry and represents and warrants to the
 licensee that it is not a competitor of Gaussian, Inc. and that
 it will not use this program in any manner prohibited above.
 ---------------------------------------------------------------
  

 Cite this work as:
 Gaussian 09, Revision A.02,
 M. J. Frisch, G. W. Trucks, H. B. Schlegel, G. E. Scuseria, 
 M. A. Robb, J. R. Cheeseman, G. Scalmani, V. Barone, B. Mennucci, 
 G. A. Petersson, H. Nakatsuji, M. Caricato, X. Li, H. P. Hratchian, 
 A. F. Izmaylov, J. Bloino, G. Zheng, J. L. Sonnenberg, M. Hada, 
 M. Ehara, K. Toyota, R. Fukuda, J. Hasegawa, M. Ishida, T. Nakajima, 
 Y. Honda, O. Kitao, H. Nakai, T. Vreven, J. A. Montgomery, Jr., 
 J. E. Peralta, F. Ogliaro, M. Bearpark, J. J. Heyd, E. Brothers, 
 K. N. Kudin, V. N. Staroverov, R. Kobayashi, J. Normand, 
 K. Raghavachari, A. Rendell, J. C. Burant, S. S. Iyengar, J. Tomasi, 
 M. Cossi, N. Rega, J. M. Millam, M. Klene, J. E. Knox, J. B. Cross, 
 V. Bakken, C. Adamo, J. Jaramillo, R. Gomperts, R. E. Stratmann, 
 O. Yazyev, A. J. Austin, R. Cammi, C. Pomelli, J. W. Ochterski, 
 R. L. Martin, K. Morokuma, V. G. Zakrzewski, G. A. Voth, 
 P. Salvador, J. J. Dannenberg, S. Dapprich, A. D. Daniels, 
 O. Farkas, J. B. Foresman, J. V. Ortiz, J. Cioslowski, 
 and D. J. Fox, Gaussian, Inc., Wallingford CT, 2009.
 
 ******************************************
 Gaussian 09:  EM64M-G09RevA.02 11-Jun-2009
                19-Aug-2011 
 ******************************************
 --------------------------------------
 #p NoSymmetry HF/6-31g scf=tight nofmm
 --------------------------------------
 1/38=1/1;
 2/12=2,15=1,17=6,18=5,40=1/2;
 3/5=1,6=6,11=9,16=1,25=1,30=1,49=2048/1,2,3;
 4//1;
 5/5=2,32=2,38=5/2;
 6/7=2,8=2,9=2,10=2,28=1/1;
 99/5=1,9=1/99;
 Leave Link    1 at Fri Aug 19 18:45:00 2011, MaxMem=          0 cpu:       0.0
 (Enter /Users/miao/Workspace/g09/l101.exe)
 -----
 water
 -----
 Symbolic Z-matrix:
 Charge =  0 Multiplicity = 1
 H                     0.3032   -0.494     0. 
 H                    -0.3032   -0.9088    0. 
 H                     0.3032   -0.494     3. 
 H                    -0.3032   -0.9088    3. 
 H                     0.3032   -0.494     6. 
 H                    -0.3032   -0.9088    6. 
 H                     0.3032   -0.494     9. 
 H                    -0.3032   -0.9088    9. 
 H                     0.3032   -0.494     12. 
 H                    -0.3032   -0.9088    12. 
 H                     0.3032   -3.494     0. 
 H                    -0.3032   -3.9088    0. 
 H                     0.3032   -3.494     3. 
 H                    -0.3032   -3.9088    3. 
 H                     0.3032   -3.494     6. 
 H                    -0.3032   -3.9088    6. 
 H                     0.3032   -3.494     9. 
 H                    -0.3032   -3.9088    9. 
 H                     0.3032   -3.494     12. 
 H                    -0.3032   -3.9088    12. 
 H                     0.3032   -6.494     0. 
 H                    -0.3032   -6.9088    0. 
 H                     0.3032   -6.494     3. 
 H                    -0.3032   -6.9088    3. 
 H                     0.3032   -6.494     6. 
 H                    -0.3032   -6.9088    6. 
 H                     0.3032   -6.494     9. 
 H                    -0.3032   -6.9088    9. 
 H                     0.3032   -6.494     12. 
 H                    -0.3032   -6.9088    12. 
 H                     0.3032   -9.494     0. 
 H                    -0.3032   -9.9088    0. 
 H                     0.3032   -9.494     3. 
 H                    -0.3032   -9.9088    3. 
 H                     0.3032   -9.494     6. 
 H                    -0.3032   -9.9088    6. 
 H                     0.3032   -9.494     9. 
 H                    -0.3032   -9.9088    9. 
 H                     0.3032   -9.494     12. 
 H                    -0.3032   -9.9088    12. 
 H                     0.3032   -12.494    0. 
 H                    -0.3032   -12.9088   0. 
 H                     0.3032   -12.494    3. 
 H                    -0.3032   -12.9088   3. 
 H                     0.3032   -12.494    6. 
 H                    -0.3032   -12.9088   6. 
 H                     0.3032   -12.494    9. 
 H                    -0.3032   -12.9088   9. 
 H                     0.3032   -12.494    12. 
 H                    -0.3032   -12.9088   12. 
 H                     0.3032   -15.494    0. 
 H                    -0.3032   -15.9088   0. 
 H                     0.3032   -15.494    3. 
 H                    -0.3032   -15.9088   3. 
 H                     0.3032   -15.494    6. 
 H                    -0.3032   -15.9088   6. 
 H                     0.3032   -15.494    9. 
 H                    -0.3032   -15.9088   9. 
 H                     0.3032   -15.494    12. 
 H                    -0.3032   -15.9088   12. 
 H                     0.3032   -18.494    0. 
 H                    -0.3032   -18.9088   0. 
 H                     0.3032   -18.494    3. 
 H                    -0.3032   -18.9088   3. 
 H                     0.3032   -18.494    6. 
 H                    -0.3032   -18.9088   6. 
 H                     0.3032   -18.494    9. 
 H                    -0.3032   -18.9088   9. 
 H                     0.3032   -18.494    12. 
 H                    -0.3032   -18.9088   12. 
 H                     0.3032   -21.494    0. 
 H                    -0.3032   -21.9088   0. 
 H                     0.3032   -21.494    3. 
 H                    -0.3032   -21.9088   3. 
 H                     0.3032   -21.494    6. 
 H                    -0.3032   -21.9088   6. 
 H                     0.3032   -21.494    9. 
 H                    -0.3032   -21.9088   9. 
 H                     0.3032   -21.494    12. 
 H                    -0.3032   -21.9088   12. 
 H                     0.3032   -24.494    0. 
 H                    -0.3032   -24.9088   0. 
 H                     0.3032   -24.494    3. 
 H                    -0.3032   -24.9088   3. 
 H                     0.3032   -24.494    6. 
 H                    -0.3032   -24.9088   6. 
 H                     0.3032   -24.494    9. 
 H                    -0.3032   -24.9088   9. 
 H                     0.3032   -24.494    12. 
 H                    -0.3032   -24.9088   12. 
 H                     0.3032   -27.494    0. 
 H                    -0.3032   -27.9088   0. 
 H                     0.3032   -27.494    3. 
 H                    -0.3032   -27.9088   3. 
 H                     0.3032   -27.494    6. 
 H                    -0.3032   -27.9088   6. 
 H                     0.3032   -27.494    9. 
 H                    -0.3032   -27.9088   9. 
 H                     0.3032   -27.494    12. 
 H                    -0.3032   -27.9088   12. 
 H                     0.3032   -30.494    0. 
 H                    -0.3032   -30.9088   0. 
 H                     0.3032   -30.494    3. 
 H                    -0.3032   -30.9088   3. 
 H                     0.3032   -30.494    6. 
 H                    -0.3032   -30.9088   6. 
 H                     0.3032   -30.494    9. 
 H                    -0.3032   -30.9088   9. 
 H                     0.3032   -30.494    12. 
 H                    -0.3032   -30.9088   12. 
 H                     0.3032   -33.494    0. 
 H                    -0.3032   -33.9088   0. 
 H                     0.3032   -33.494    3. 
 H                    -0.3032   -33.9088   3. 
 H                     0.3032   -33.494    6. 
 H                    -0.3032   -33.9088   6. 
 H                     0.3032   -33.494    9. 
 H                    -0.3032   -33.9088   9. 
 H                     0.3032   -33.494    12. 
 H                    -0.3032   -33.9088   12. 
 H                     0.3032   -36.494    0. 
 H                    -0.3032   -36.9088   0. 
 H                     0.3032   -36.494    3. 
 H                    -0.3032   -36.9088   3. 
 H                     0.3032   -36.494    6. 
 H                    -0.3032   -36.9088   6. 
 H                     0.3032   -36.494    9. 
 H                    -0.3032   -36.9088   9. 
 H                     0.3032   -36.494    12. 
 H                    -0.3032   -36.9088   12. 
 H                     0.3032   -39.494    0. 
 H                    -0.3032   -39.9088   0. 
 H                     0.3032   -39.494    3. 
 H                    -0.3032   -39.9088   3. 
 H                     0.3032   -39.494    6. 
 H                    -0.3032   -39.9088   6. 
 H                     0.3032   -39.494    9. 
 H                    -0.3032   -39.9088   9. 
 H                     0.3032   -39.494    12. 
 H                    -0.3032   -39.9088   12. 
 H                     0.3032   -42.494    0. 
 H                    -0.3032   -42.9088   0. 
 H                     0.3032   -42.494    3. 
 H                    -0.3032   -42.9088   3. 
 H                     0.3032   -42.494    6. 
 H                    -0.3032   -42.9088   6. 
 H                     0.3032   -42.494    9. 
 H                    -0.3032   -42.9088   9. 
 H                     0.3032   -42.494    12. 
 H                    -0.3032   -42.9088   12. 
 
 NAtoms=    150 NQM=    150 NQMF=      0 NMic=      0 NMicF=      0 NTot=    150.
                    Isotopes and Nuclear Properties:
 (Nuclear quadrupole moments (NQMom) in fm**2, nuclear magnetic moments (NMagM)
  in nuclear magnetons)

  Atom         1           2           3           4           5           6           7           8           9          10
 IAtWgt=           1           1           1           1           1           1           1           1           1           1
 AtmWgt=   1.0078250   1.0078250   1.0078250   1.0078250   1.0078250   1.0078250   1.0078250   1.0078250   1.0078250   1.0078250
 NucSpn=           1           1           1           1           1           1           1           1           1           1
 AtZEff=   0.0000000   0.0000000   0.0000000   0.0000000   0.0000000   0.0000000   0.0000000   0.0000000   0.0000000   0.0000000
 NQMom=    0.0000000   0.0000000   0.0000000   0.0000000   0.0000000   0.0000000   0.0000000   0.0000000   0.0000000   0.0000000
 NMagM=    2.7928460   2.7928460   2.7928460   2.7928460   2.7928460   2.7928460   2.7928460   2.7928460   2.7928460   2.7928460

  Atom        11          12          13          14          15          16          17          18          19          20
 IAtWgt=           1           1           1           1           1           1           1           1           1           1
 AtmWgt=   1.0078250   1.0078250   1.0078250   1.0078250   1.0078250   1.0078250   1.0078250   1.0078250   1.0078250   1.0078250
 NucSpn=           1           1           1           1           1           1           1           1           1           1
 AtZEff=   0.0000000   0.0000000   0.0000000   0.0000000   0.0000000   0.0000000   0.0000000   0.0000000   0.0000000   0.0000000
 NQMom=    0.0000000   0.0000000   0.0000000   0.0000000   0.0000000   0.0000000   0.0000000   0.0000000   0.0000000   0.0000000
 NMagM=    2.7928460   2.7928460   2.7928460   2.7928460   2.7928460   2.7928460   2.7928460   2.7928460   2.7928460   2.7928460

  Atom        21          22          23          24          25          26          27          28          29          30
 IAtWgt=           1           1           1           1           1           1           1           1           1           1
 AtmWgt=   1.0078250   1.0078250   1.0078250   1.0078250   1.0078250   1.0078250   1.0078250   1.0078250   1.0078250   1.0078250
 NucSpn=           1           1           1           1           1           1           1           1           1           1
 AtZEff=   0.0000000   0.0000000   0.0000000   0.0000000   0.0000000   0.0000000   0.0000000   0.0000000   0.0000000   0.0000000
 NQMom=    0.0000000   0.0000000   0.0000000   0.0000000   0.0000000   0.0000000   0.0000000   0.0000000   0.0000000   0.0000000
 NMagM=    2.7928460   2.7928460   2.7928460   2.7928460   2.7928460   2.7928460   2.7928460   2.7928460   2.7928460   2.7928460

  Atom        31          32          33          34          35          36          37          38          39          40
 IAtWgt=           1           1           1           1           1           1           1           1           1           1
 AtmWgt=   1.0078250   1.0078250   1.0078250   1.0078250   1.0078250   1.0078250   1.0078250   1.0078250   1.0078250   1.0078250
 NucSpn=           1           1           1           1           1           1           1           1           1           1
 AtZEff=   0.0000000   0.0000000   0.0000000   0.0000000   0.0000000   0.0000000   0.0000000   0.0000000   0.0000000   0.0000000
 NQMom=    0.0000000   0.0000000   0.0000000   0.0000000   0.0000000   0.0000000   0.0000000   0.0000000   0.0000000   0.0000000
 NMagM=    2.7928460   2.7928460   2.7928460   2.7928460   2.7928460   2.7928460   2.7928460   2.7928460   2.7928460   2.7928460

  Atom        41          42          43          44          45          46          47          48          49          50
 IAtWgt=           1           1           1           1           1           1           1           1           1           1
 AtmWgt=   1.0078250   1.0078250   1.0078250   1.0078250   1.0078250   1.0078250   1.0078250   1.0078250   1.0078250   1.0078250
 NucSpn=           1           1           1           1           1           1           1           1           1           1
 AtZEff=   0.0000000   0.0000000   0.0000000   0.0000000   0.0000000   0.0000000   0.0000000   0.0000000   0.0000000   0.0000000
 NQMom=    0.0000000   0.0000000   0.0000000   0.0000000   0.0000000   0.0000000   0.0000000   0.0000000   0.0000000   0.0000000
 NMagM=    2.7928460   2.7928460   2.7928460   2.7928460   2.7928460   2.7928460   2.7928460   2.7928460   2.7928460   2.7928460

  Atom        51          52          53          54          55          56          57          58          59          60
 IAtWgt=           1           1           1           1           1           1           1           1           1           1
 AtmWgt=   1.0078250   1.0078250   1.0078250   1.0078250   1.0078250   1.0078250   1.0078250   1.0078250   1.0078250   1.0078250
 NucSpn=           1           1           1           1           1           1           1           1           1           1
 AtZEff=   0.0000000   0.0000000   0.0000000   0.0000000   0.0000000   0.0000000   0.0000000   0.0000000   0.0000000   0.0000000
 NQMom=    0.0000000   0.0000000   0.0000000   0.0000000   0.0000000   0.0000000   0.0000000   0.0000000   0.0000000   0.0000000
 NMagM=    2.7928460   2.7928460   2.7928460   2.7928460   2.7928460   2.7928460   2.7928460   2.7928460   2.7928460   2.7928460

  Atom        61          62          63          64          65          66          67          68          69          70
 IAtWgt=           1           1           1           1           1           1           1           1           1           1
 AtmWgt=   1.0078250   1.0078250   1.0078250   1.0078250   1.0078250   1.0078250   1.0078250   1.0078250   1.0078250   1.0078250
 NucSpn=           1           1           1           1           1           1           1           1           1           1
 AtZEff=   0.0000000   0.0000000   0.0000000   0.0000000   0.0000000   0.0000000   0.0000000   0.0000000   0.0000000   0.0000000
 NQMom=    0.0000000   0.0000000   0.0000000   0.0000000   0.0000000   0.0000000   0.0000000   0.0000000   0.0000000   0.0000000
 NMagM=    2.7928460   2.7928460   2.7928460   2.7928460   2.7928460   2.7928460   2.7928460   2.7928460   2.7928460   2.7928460

  Atom        71          72          73          74          75          76          77          78          79          80
 IAtWgt=           1           1           1           1           1           1           1           1           1           1
 AtmWgt=   1.0078250   1.0078250   1.0078250   1.0078250   1.0078250   1.0078250   1.0078250   1.0078250   1.0078250   1.0078250
 NucSpn=           1           1           1           1           1           1           1           1           1           1
 AtZEff=   0.0000000   0.0000000   0.0000000   0.0000000   0.0000000   0.0000000   0.0000000   0.0000000   0.0000000   0.0000000
 NQMom=    0.0000000   0.0000000   0.0000000   0.0000000   0.0000000   0.0000000   0.0000000   0.0000000   0.0000000   0.0000000
 NMagM=    2.7928460   2.7928460   2.7928460   2.7928460   2.7928460   2.7928460   2.7928460   2.7928460   2.7928460   2.7928460

  Atom        81          82          83          84          85          86          87          88          89          90
 IAtWgt=           1           1           1           1           1           1           1           1           1           1
 AtmWgt=   1.0078250   1.0078250   1.0078250   1.0078250   1.0078250   1.0078250   1.0078250   1.0078250   1.0078250   1.0078250
 NucSpn=           1           1           1           1           1           1           1           1           1           1
 AtZEff=   0.0000000   0.0000000   0.0000000   0.0000000   0.0000000   0.0000000   0.0000000   0.0000000   0.0000000   0.0000000
 NQMom=    0.0000000   0.0000000   0.0000000   0.0000000   0.0000000   0.0000000   0.0000000   0.0000000   0.0000000   0.0000000
 NMagM=    2.7928460   2.7928460   2.7928460   2.7928460   2.7928460   2.7928460   2.7928460   2.7928460   2.7928460   2.7928460

  Atom        91          92          93          94          95          96          97          98          99         100
 IAtWgt=           1           1           1           1           1           1           1           1           1           1
 AtmWgt=   1.0078250   1.0078250   1.0078250   1.0078250   1.0078250   1.0078250   1.0078250   1.0078250   1.0078250   1.0078250
 NucSpn=           1           1           1           1           1           1           1           1           1           1
 AtZEff=   0.0000000   0.0000000   0.0000000   0.0000000   0.0000000   0.0000000   0.0000000   0.0000000   0.0000000   0.0000000
 NQMom=    0.0000000   0.0000000   0.0000000   0.0000000   0.0000000   0.0000000   0.0000000   0.0000000   0.0000000   0.0000000
 NMagM=    2.7928460   2.7928460   2.7928460   2.7928460   2.7928460   2.7928460   2.7928460   2.7928460   2.7928460   2.7928460

  Atom       101         102         103         104         105         106         107         108         109         110
 IAtWgt=           1           1           1           1           1           1           1           1           1           1
 AtmWgt=   1.0078250   1.0078250   1.0078250   1.0078250   1.0078250   1.0078250   1.0078250   1.0078250   1.0078250   1.0078250
 NucSpn=           1           1           1           1           1           1           1           1           1           1
 AtZEff=   0.0000000   0.0000000   0.0000000   0.0000000   0.0000000   0.0000000   0.0000000   0.0000000   0.0000000   0.0000000
 NQMom=    0.0000000   0.0000000   0.0000000   0.0000000   0.0000000   0.0000000   0.0000000   0.0000000   0.0000000   0.0000000
 NMagM=    2.7928460   2.7928460   2.7928460   2.7928460   2.7928460   2.7928460   2.7928460   2.7928460   2.7928460   2.7928460

  Atom       111         112         113         114         115         116         117         118         119         120
 IAtWgt=           1           1           1           1           1           1           1           1           1           1
 AtmWgt=   1.0078250   1.0078250   1.0078250   1.0078250   1.0078250   1.0078250   1.0078250   1.0078250   1.0078250   1.0078250
 NucSpn=           1           1           1           1           1           1           1           1           1           1
 AtZEff=   0.0000000   0.0000000   0.0000000   0.0000000   0.0000000   0.0000000   0.0000000   0.0000000   0.0000000   0.0000000
 NQMom=    0.0000000   0.0000000   0.0000000   0.0000000   0.0000000   0.0000000   0.0000000   0.0000000   0.0000000   0.0000000
 NMagM=    2.7928460   2.7928460   2.7928460   2.7928460   2.7928460   2.7928460   2.7928460   2.7928460   2.7928460   2.7928460

  Atom       121         122         123         124         125         126         127         128         129         130
 IAtWgt=           1           1           1           1           1           1           1           1           1           1
 AtmWgt=   1.0078250   1.0078250   1.0078250   1.0078250   1.0078250   1.0078250   1.0078250   1.0078250   1.0078250   1.0078250
 NucSpn=           1           1           1           1           1           1           1           1           1           1
 AtZEff=   0.0000000   0.0000000   0.0000000   0.0000000   0.0000000   0.0000000   0.0000000   0.0000000   0.0000000   0.0000000
 NQMom=    0.0000000   0.0000000   0.0000000   0.0000000   0.0000000   0.0000000   0.0000000   0.0000000   0.0000000   0.0000000
 NMagM=    2.7928460   2.7928460   2.7928460   2.7928460   2.7928460   2.7928460   2.7928460   2.7928460   2.7928460   2.7928460

  Atom       131         132         133         134         135         136         137         138         139         140
 IAtWgt=           1           1           1           1           1           1           1           1           1           1
 AtmWgt=   1.0078250   1.0078250   1.0078250   1.0078250   1.0078250   1.0078250   1.0078250   1.0078250   1.0078250   1.0078250
 NucSpn=           1           1           1           1           1           1           1           1           1           1
 AtZEff=   0.0000000   0.0000000   0.0000000   0.0000000   0.0000000   0.0000000   0.0000000   0.0000000   0.0000000   0.0000000
 NQMom=    0.0000000   0.0000000   0.0000000   0.0000000   0.0000000   0.0000000   0.0000000   0.0000000   0.0000000   0.0000000
 NMagM=    2.7928460   2.7928460   2.7928460   2.7928460   2.7928460   2.7928460   2.7928460   2.7928460   2.7928460   2.7928460

  Atom       141         142         143         144         145         146         147         148         149         150
 IAtWgt=           1           1           1           1           1           1           1           1           1           1
 AtmWgt=   1.0078250   1.0078250   1.0078250   1.0078250   1.0078250   1.0078250   1.0078250   1.0078250   1.0078250   1.0078250
 NucSpn=           1           1           1           1           1           1           1           1           1           1
 AtZEff=   0.0000000   0.0000000   0.0000000   0.0000000   0.0000000   0.0000000   0.0000000   0.0000000   0.0000000   0.0000000
 NQMom=    0.0000000   0.0000000   0.0000000   0.0000000   0.0000000   0.0000000   0.0000000   0.0000000   0.0000000   0.0000000
 NMagM=    2.7928460   2.7928460   2.7928460   2.7928460   2.7928460   2.7928460   2.7928460   2.7928460   2.7928460   2.7928460
 Leave Link  101 at Fri Aug 19 18:45:00 2011, MaxMem=   33554432 cpu:       0.1
 (Enter /Users/miao/Workspace/g09/l202.exe)
 Symmetry turned off by external request.
 Stoichiometry    H150
 Framework group  C2H[SGH(H30),X(H120)]
 Deg. of freedom   119
 Full point group                 C2H     NOp   4
                         Z-Matrix orientation:                         
 ---------------------------------------------------------------------
 Center     Atomic      Atomic             Coordinates (Angstroms)
 Number     Number       Type             X           Y           Z
 ---------------------------------------------------------------------
      1          1           0        0.303200   -0.494000    0.000000
      2          1           0       -0.303200   -0.908800    0.000000
      3          1           0        0.303200   -0.494000    3.000000
      4          1           0       -0.303200   -0.908800    3.000000
      5          1           0        0.303200   -0.494000    6.000000
      6          1           0       -0.303200   -0.908800    6.000000
      7          1           0        0.303200   -0.494000    9.000000
      8          1           0       -0.303200   -0.908800    9.000000
      9          1           0        0.303200   -0.494000   12.000000
     10          1           0       -0.303200   -0.908800   12.000000
     11          1           0        0.303200   -3.494000    0.000000
     12          1           0       -0.303200   -3.908800    0.000000
     13          1           0        0.303200   -3.494000    3.000000
     14          1           0       -0.303200   -3.908800    3.000000
     15          1           0        0.303200   -3.494000    6.000000
     16          1           0       -0.303200   -3.908800    6.000000
     17          1           0        0.303200   -3.494000    9.000000
     18          1           0       -0.303200   -3.908800    9.000000
     19          1           0        0.303200   -3.494000   12.000000
     20          1           0       -0.303200   -3.908800   12.000000
     21          1           0        0.303200   -6.494000    0.000000
     22          1           0       -0.303200   -6.908800    0.000000
     23          1           0        0.303200   -6.494000    3.000000
     24          1           0       -0.303200   -6.908800    3.000000
     25          1           0        0.303200   -6.494000    6.000000
     26          1           0       -0.303200   -6.908800    6.000000
     27          1           0        0.303200   -6.494000    9.000000
     28          1           0       -0.303200   -6.908800    9.000000
     29          1           0        0.303200   -6.494000   12.000000
     30          1           0       -0.303200   -6.908800   12.000000
     31          1           0        0.303200   -9.494000    0.000000
     32          1           0       -0.303200   -9.908800    0.000000
     33          1           0        0.303200   -9.494000    3.000000
     34          1           0       -0.303200   -9.908800    3.000000
     35          1           0        0.303200   -9.494000    6.000000
     36          1           0       -0.303200   -9.908800    6.000000
     37          1           0        0.303200   -9.494000    9.000000
     38          1           0       -0.303200   -9.908800    9.000000
     39          1           0        0.303200   -9.494000   12.000000
     40          1           0       -0.303200   -9.908800   12.000000
     41          1           0        0.303200  -12.494000    0.000000
     42          1           0       -0.303200  -12.908800    0.000000
     43          1           0        0.303200  -12.494000    3.000000
     44          1           0       -0.303200  -12.908800    3.000000
     45          1           0        0.303200  -12.494000    6.000000
     46          1           0       -0.303200  -12.908800    6.000000
     47          1           0        0.303200  -12.494000    9.000000
     48          1           0       -0.303200  -12.908800    9.000000
     49          1           0        0.303200  -12.494000   12.000000
     50          1           0       -0.303200  -12.908800   12.000000
     51          1           0        0.303200  -15.494000    0.000000
     52          1           0       -0.303200  -15.908800    0.000000
     53          1           0        0.303200  -15.494000    3.000000
     54          1           0       -0.303200  -15.908800    3.000000
     55          1           0        0.303200  -15.494000    6.000000
     56          1           0       -0.303200  -15.908800    6.000000
     57          1           0        0.303200  -15.494000    9.000000
     58          1           0       -0.303200  -15.908800    9.000000
     59          1           0        0.303200  -15.494000   12.000000
     60          1           0       -0.303200  -15.908800   12.000000
     61          1           0        0.303200  -18.494000    0.000000
     62          1           0       -0.303200  -18.908800    0.000000
     63          1           0        0.303200  -18.494000    3.000000
     64          1           0       -0.303200  -18.908800    3.000000
     65          1           0        0.303200  -18.494000    6.000000
     66          1           0       -0.303200  -18.908800    6.000000
     67          1           0        0.303200  -18.494000    9.000000
     68          1           0       -0.303200  -18.908800    9.000000
     69          1           0        0.303200  -18.494000   12.000000
     70          1           0       -0.303200  -18.908800   12.000000
     71          1           0        0.303200  -21.494000    0.000000
     72          1           0       -0.303200  -21.908800    0.000000
     73          1           0        0.303200  -21.494000    3.000000
     74          1           0       -0.303200  -21.908800    3.000000
     75          1           0        0.303200  -21.494000    6.000000
     76          1           0       -0.303200  -21.908800    6.000000
     77          1           0        0.303200  -21.494000    9.000000
     78          1           0       -0.303200  -21.908800    9.000000
     79          1           0        0.303200  -21.494000   12.000000
     80          1           0       -0.303200  -21.908800   12.000000
     81          1           0        0.303200  -24.494000    0.000000
     82          1           0       -0.303200  -24.908800    0.000000
     83          1           0        0.303200  -24.494000    3.000000
     84          1           0       -0.303200  -24.908800    3.000000
     85          1           0        0.303200  -24.494000    6.000000
     86          1           0       -0.303200  -24.908800    6.000000
     87          1           0        0.303200  -24.494000    9.000000
     88          1           0       -0.303200  -24.908800    9.000000
     89          1           0        0.303200  -24.494000   12.000000
     90          1           0       -0.303200  -24.908800   12.000000
     91          1           0        0.303200  -27.494000    0.000000
     92          1           0       -0.303200  -27.908800    0.000000
     93          1           0        0.303200  -27.494000    3.000000
     94          1           0       -0.303200  -27.908800    3.000000
     95          1           0        0.303200  -27.494000    6.000000
     96          1           0       -0.303200  -27.908800    6.000000
     97          1           0        0.303200  -27.494000    9.000000
     98          1           0       -0.303200  -27.908800    9.000000
     99          1           0        0.303200  -27.494000   12.000000
    100          1           0       -0.303200  -27.908800   12.000000
    101          1           0        0.303200  -30.494000    0.000000
    102          1           0       -0.303200  -30.908800    0.000000
    103          1           0        0.303200  -30.494000    3.000000
    104          1           0       -0.303200  -30.908800    3.000000
    105          1           0        0.303200  -30.494000    6.000000
    106          1           0       -0.303200  -30.908800    6.000000
    107          1           0        0.303200  -30.494000    9.000000
    108          1           0       -0.303200  -30.908800    9.000000
    109          1           0        0.303200  -30.494000   12.000000
    110          1           0       -0.303200  -30.908800   12.000000
    111          1           0        0.303200  -33.494000    0.000000
    112          1           0       -0.303200  -33.908800    0.000000
    113          1           0        0.303200  -33.494000    3.000000
    114          1           0       -0.303200  -33.908800    3.000000
    115          1           0        0.303200  -33.494000    6.000000
    116          1           0       -0.303200  -33.908800    6.000000
    117          1           0        0.303200  -33.494000    9.000000
    118          1           0       -0.303200  -33.908800    9.000000
    119          1           0        0.303200  -33.494000   12.000000
    120          1           0       -0.303200  -33.908800   12.000000
    121          1           0        0.303200  -36.494000    0.000000
    122          1           0       -0.303200  -36.908800    0.000000
    123          1           0        0.303200  -36.494000    3.000000
    124          1           0       -0.303200  -36.908800    3.000000
    125          1           0        0.303200  -36.494000    6.000000
    126          1           0       -0.303200  -36.908800    6.000000
    127          1           0        0.303200  -36.494000    9.000000
    128          1           0       -0.303200  -36.908800    9.000000
    129          1           0        0.303200  -36.494000   12.000000
    130          1           0       -0.303200  -36.908800   12.000000
    131          1           0        0.303200  -39.494000    0.000000
    132          1           0       -0.303200  -39.908800    0.000000
    133          1           0        0.303200  -39.494000    3.000000
    134          1           0       -0.303200  -39.908800    3.000000
    135          1           0        0.303200  -39.494000    6.000000
    136          1           0       -0.303200  -39.908800    6.000000
    137          1           0        0.303200  -39.494000    9.000000
    138          1           0       -0.303200  -39.908800    9.000000
    139          1           0        0.303200  -39.494000   12.000000
    140          1           0       -0.303200  -39.908800   12.000000
    141          1           0        0.303200  -42.494000    0.000000
    142          1           0       -0.303200  -42.908800    0.000000
    143          1           0        0.303200  -42.494000    3.000000
    144          1           0       -0.303200  -42.908800    3.000000
    145          1           0        0.303200  -42.494000    6.000000
    146          1           0       -0.303200  -42.908800    6.000000
    147          1           0        0.303200  -42.494000    9.000000
    148          1           0       -0.303200  -42.908800    9.000000
    149          1           0        0.303200  -42.494000   12.000000
    150          1           0       -0.303200  -42.908800   12.000000
 ---------------------------------------------------------------------
 Rotational constants (GHZ):      0.1847806      0.0198830      0.0179691
 Leave Link  202 at Fri Aug 19 18:45:00 2011, MaxMem=   33554432 cpu:       0.0
 (Enter /Users/miao/Workspace/g09/l301.exe)
 Standard basis: 6-31G (6D, 7F)
 Ernie: Thresh=  0.10000D-02 Tol=  0.10000D-05 Strict=F.
 Integral buffers will be    131072 words long.
 Raffenetti 1 integral format.
 Two-electron integral symmetry is turned off.
   300 basis functions,   600 primitive gaussians,   300 cartesian basis functions
    75 alpha electrons       75 beta electrons
       nuclear repulsion energy       591.8749173748 Hartrees.
 IExCor=    0 DFT=F Ex=HF Corr=None ExCW=0 ScaHFX=  1.000000
 ScaDFX=  1.000000  1.000000  1.000000  1.000000 ScalE2=  1.000000  1.000000
 IRadAn=      0 IRanWt=     -1 IRanGd=            0 ICorTp=0
 Leave Link  301 at Fri Aug 19 18:45:00 2011, MaxMem=   33554432 cpu:       0.1
 (Enter /Users/miao/Workspace/g09/l302.exe)
 NPDir=0 NMtPBC=     1 NCelOv=     1 NCel=       1 NClECP=     1 NCelD=      1
         NCelK=      1 NCelE2=     1 NClLst=     1 CellRange=     0.0.
 One-electron integrals computed using PRISM.
 NBasis=   300 RedAO= T  NBF=   300
 NBsUse=   300 1.00D-06 NBFU=   300
 Leave Link  302 at Fri Aug 19 18:45:01 2011, MaxMem=   33554432 cpu:       0.4
 (Enter /Users/miao/Workspace/g09/l303.exe)
 DipDrv:  MaxL=1.
 Leave Link  303 at Fri Aug 19 18:45:01 2011, MaxMem=   33554432 cpu:       0.1
 (Enter /Users/miao/Workspace/g09/l401.exe)
 Harris functional with IExCor=  205 diagonalized for initial guess.
 ExpMin= 1.61D-01 ExpMax= 1.87D+01 ExpMxC= 1.87D+01 IAcc=1 IRadAn=         1 AccDes= 0.00D+00
 HarFok:  IExCor=  205 AccDes= 0.00D+00 IRadAn=         1 IDoV= 1
 ScaDFX=  1.000000  1.000000  1.000000  1.000000
 FoFCou: FMM=F IPFlag=           0 FMFlag=      100000 FMFlg1=        2800
         NFxFlg=           0 DoJE=T BraDBF=F KetDBF=T FulRan=T
         Omega=  0.000000  0.000000  1.000000  0.000000  0.000000 ICntrl=     500 IOpCl=  0
         NMat0=    1 NMatS0=    1 NMatT0=    0 NMatD0=    1 NMtDS0=    0 NMtDT0=    0
         I1Cent=           4 NGrid=           0.
 Symmetry not used in FoFCou.
 Harris En= -88.5626366303794    
 Leave Link  401 at Fri Aug 19 18:45:09 2011, MaxMem=   33554432 cpu:       8.0
 (Enter /Users/miao/Workspace/g09/l502.exe)
 Closed shell SCF:
 Requested convergence on RMS density matrix=1.00D-08 within 128 cycles.
 Requested convergence on MAX density matrix=1.00D-06.
 Requested convergence on             energy=1.00D-06.
 No special actions if energy rises.
 Using DIIS extrapolation, IDIIS=  1040.
 Two-electron integral symmetry not used.
 IEnd=      292046 IEndB=      292046 NGot=    33554432 MDV=    33369327
 LenX=    33369327 LenY=    33278886
 Fock matrices will be formed incrementally for  20 cycles.
 Integral accuracy reduced to 1.0D-05 until final iterations.

 Cycle   1  Pass 0  IDiag  1:
 FoFCou: FMM=F IPFlag=           0 FMFlag=      100000 FMFlg1=        2800
         NFxFlg=           0 DoJE=F BraDBF=F KetDBF=F FulRan=T
         Omega=  0.000000  0.000000  1.000000  0.000000  0.000000 ICntrl=       0 IOpCl=  0
         NMat0=    1 NMatS0=    1 NMatT0=    0 NMatD0=    1 NMtDS0=    0 NMtDT0=    0
         I1Cent=           0 NGrid=           0.
 Symmetry not used in FoFCou.
 E= -84.3040240942648    
 DIIS: error= 2.27D-02 at cycle   1 NSaved=   1.
 NSaved= 1 IEnMin= 1 EnMin= -84.3040240942648     IErMin= 1 ErrMin= 2.27D-02
 ErrMax= 2.27D-02 EMaxC= 1.00D-01 BMatC= 9.12D-02 BMatP= 9.12D-02
 IDIUse=3 WtCom= 7.73D-01 WtEn= 2.27D-01
 Coeff-Com:  0.100D+01
 Coeff-En:   0.100D+01
 Coeff:      0.100D+01
 Gap=     0.769 Goal=   None    Shift=    0.000
 GapD=    0.769 DampG=2.000 DampE=0.500 DampFc=1.0000 IDamp=-1.
 RMSDP=9.56D-04 MaxDP=1.34D-02              OVMax= 2.69D-02

 Cycle   2  Pass 0  IDiag  1:
 RMSU=  6.51D-04    CP:  9.76D-01
 E= -84.4497064983214     Delta-E=       -0.145682404057 Rises=F Damp=F
 DIIS: error= 2.82D-03 at cycle   2 NSaved=   2.
 NSaved= 2 IEnMin= 2 EnMin= -84.4497064983214     IErMin= 2 ErrMin= 2.82D-03
 ErrMax= 2.82D-03 EMaxC= 1.00D-01 BMatC= 1.96D-03 BMatP= 9.12D-02
 IDIUse=3 WtCom= 9.72D-01 WtEn= 2.82D-02
 Coeff-Com: -0.171D+00 0.117D+01
 Coeff-En:   0.000D+00 0.100D+01
 Coeff:     -0.166D+00 0.117D+01
 Gap=     0.765 Goal=   None    Shift=    0.000
 RMSDP=1.61D-04 MaxDP=2.32D-03 DE=-1.46D-01 OVMax= 4.39D-03

 Cycle   3  Pass 0  IDiag  1:
 RMSU=  1.25D-05    CP:  9.71D-01  1.17D+00
 E= -84.4529494224905     Delta-E=       -0.003242924169 Rises=F Damp=F
 DIIS: error= 7.12D-05 at cycle   3 NSaved=   3.
 NSaved= 3 IEnMin= 3 EnMin= -84.4529494224905     IErMin= 3 ErrMin= 7.12D-05
 ErrMax= 7.12D-05 EMaxC= 1.00D-01 BMatC= 4.17D-07 BMatP= 1.96D-03
 IDIUse=1 WtCom= 1.00D+00 WtEn= 0.00D+00
 Coeff-Com:  0.240D-01-0.169D+00 0.115D+01
 Coeff:      0.240D-01-0.169D+00 0.115D+01
 Gap=     0.765 Goal=   None    Shift=    0.000
 RMSDP=2.70D-06 MaxDP=7.37D-05 DE=-3.24D-03 OVMax= 1.36D-04

 Initial convergence to 1.0D-05 achieved.  Increase integral accuracy.
 Cycle   4  Pass 1  IDiag  1:
 E= -84.4529515218859     Delta-E=       -0.000002099395 Rises=F Damp=F
 DIIS: error= 1.84D-06 at cycle   1 NSaved=   1.
 NSaved= 1 IEnMin= 1 EnMin= -84.4529515218859     IErMin= 1 ErrMin= 1.84D-06
 ErrMax= 1.84D-06 EMaxC= 1.00D-01 BMatC= 7.22D-10 BMatP= 7.22D-10
 IDIUse=1 WtCom= 1.00D+00 WtEn= 0.00D+00
 Coeff-Com:  0.100D+01
 Coeff:      0.100D+01
 Gap=     0.765 Goal=   None    Shift=    0.000
 RMSDP=2.70D-06 MaxDP=7.37D-05 DE=-2.10D-06 OVMax= 4.95D-06

 Cycle   5  Pass 1  IDiag  1:
 RMSU=  1.45D-07    CP:  1.00D+00
 E= -84.4529515235801     Delta-E=       -0.000000001694 Rises=F Damp=F
 DIIS: error= 3.66D-07 at cycle   2 NSaved=   2.
 NSaved= 2 IEnMin= 2 EnMin= -84.4529515235801     IErMin= 2 ErrMin= 3.66D-07
 ErrMax= 3.66D-07 EMaxC= 1.00D-01 BMatC= 3.53D-11 BMatP= 7.22D-10
 IDIUse=1 WtCom= 1.00D+00 WtEn= 0.00D+00
 Coeff-Com: -0.267D+00 0.127D+01
 Coeff:     -0.267D+00 0.127D+01
 Gap=     0.765 Goal=   None    Shift=    0.000
 RMSDP=5.92D-08 MaxDP=2.57D-06 DE=-1.69D-09 OVMax= 1.39D-06

 Cycle   6  Pass 1  IDiag  1:
 RMSU=  6.03D-09    CP:  1.00D+00  1.29D+00
 E= -84.4529515236736     Delta-E=       -0.000000000094 Rises=F Damp=F
 DIIS: error= 1.75D-08 at cycle   3 NSaved=   3.
 NSaved= 3 IEnMin= 3 EnMin= -84.4529515236736     IErMin= 3 ErrMin= 1.75D-08
 ErrMax= 1.75D-08 EMaxC= 1.00D-01 BMatC= 8.97D-14 BMatP= 3.53D-11
 IDIUse=1 WtCom= 1.00D+00 WtEn= 0.00D+00
 Coeff-Com:  0.379D-01-0.198D+00 0.116D+01
 Coeff:      0.379D-01-0.198D+00 0.116D+01
 Gap=     0.765 Goal=   None    Shift=    0.000
 RMSDP=2.66D-09 MaxDP=1.54D-07 DE=-9.36D-11 OVMax= 5.42D-08

 SCF Done:  E(RHF) =  -84.4529515237     A.U. after    6 cycles
             Convg  =    0.2660D-08             -V/T =  1.9918
 KE= 8.515307627606D+01 PE=-1.348622453494D+03 EE= 5.871415083197D+02
 Leave Link  502 at Fri Aug 19 18:45:39 2011, MaxMem=   33554432 cpu:      29.0
 (Enter /Users/miao/Workspace/g09/l601.exe)
 Copying SCF densities to generalized density rwf, IOpCl= 0 IROHF=0.

 **********************************************************************

            Population analysis using the SCF density.

 **********************************************************************

 Alpha  occ. eigenvalues --   -0.62737  -0.62641  -0.62476  -0.62248  -0.62161
 Alpha  occ. eigenvalues --   -0.62066  -0.61965  -0.61905  -0.61683  -0.61635
 Alpha  occ. eigenvalues --   -0.61407  -0.61296  -0.61270  -0.61205  -0.61086
 Alpha  occ. eigenvalues --   -0.61050  -0.60882  -0.60836  -0.60731  -0.60571
 Alpha  occ. eigenvalues --   -0.60486  -0.60369  -0.60354  -0.60283  -0.60262
 Alpha  occ. eigenvalues --   -0.60134  -0.60096  -0.59968  -0.59930  -0.59921
 Alpha  occ. eigenvalues --   -0.59729  -0.59676  -0.59632  -0.59589  -0.59559
 Alpha  occ. eigenvalues --   -0.59549  -0.59406  -0.59399  -0.59381  -0.59233
 Alpha  occ. eigenvalues --   -0.59209  -0.59190  -0.59122  -0.59055  -0.58964
 Alpha  occ. eigenvalues --   -0.58913  -0.58911  -0.58827  -0.58776  -0.58709
 Alpha  occ. eigenvalues --   -0.58680  -0.58645  -0.58485  -0.58440  -0.58366
 Alpha  occ. eigenvalues --   -0.58357  -0.58310  -0.58180  -0.58033  -0.58012
 Alpha  occ. eigenvalues --   -0.57923  -0.57728  -0.57695  -0.57687  -0.57603
 Alpha  occ. eigenvalues --   -0.57396  -0.57362  -0.57152  -0.57050  -0.56967
 Alpha  occ. eigenvalues --   -0.56848  -0.56771  -0.56537  -0.56359  -0.56244
 Alpha virt. eigenvalues --    0.20277   0.20343   0.20452   0.20585   0.20653
 Alpha virt. eigenvalues --    0.20734   0.20736   0.20872   0.20890   0.21030
 Alpha virt. eigenvalues --    0.21044   0.21170   0.21177   0.21268   0.21269
 Alpha virt. eigenvalues --    0.21671   0.21738   0.21850   0.21986   0.22074
 Alpha virt. eigenvalues --    0.22144   0.22152   0.22283   0.22297   0.22435
 Alpha virt. eigenvalues --    0.22448   0.22572   0.22579   0.22667   0.22669
 Alpha virt. eigenvalues --    0.23817   0.23886   0.24000   0.24141   0.24261
 Alpha virt. eigenvalues --    0.24313   0.24337   0.24459   0.24463   0.24602
 Alpha virt. eigenvalues --    0.24612   0.24734   0.24740   0.24827   0.24829
 Alpha virt. eigenvalues --    0.26253   0.26323   0.26440   0.26585   0.26731
 Alpha virt. eigenvalues --    0.26795   0.26824   0.26926   0.26937   0.27071
 Alpha virt. eigenvalues --    0.27074   0.27196   0.27199   0.27285   0.27287
 Alpha virt. eigenvalues --    0.28267   0.28338   0.28455   0.28604   0.28760
 Alpha virt. eigenvalues --    0.28863   0.28878   0.28967   0.28990   0.29111
 Alpha virt. eigenvalues --    0.29116   0.29235   0.29236   0.29322   0.29322
 Alpha virt. eigenvalues --    0.60497   0.60986   0.61810   0.62968   0.63351
 Alpha virt. eigenvalues --    0.63859   0.64449   0.64716   0.65920   0.66226
 Alpha virt. eigenvalues --    0.67460   0.68256   0.68262   0.68805   0.69310
 Alpha virt. eigenvalues --    0.69718   0.70472   0.71003   0.71426   0.72647
 Alpha virt. eigenvalues --    0.72790   0.73741   0.74626   0.74721   0.75112
 Alpha virt. eigenvalues --    0.75311   0.76170   0.76305   0.76895   0.77333
 Alpha virt. eigenvalues --    0.77701   0.78612   0.79347   0.79386   0.79491
 Alpha virt. eigenvalues --    0.80842   0.80958   0.81050   0.81479   0.81649
 Alpha virt. eigenvalues --    0.82012   0.82351   0.82552   0.83096   0.83170
 Alpha virt. eigenvalues --    0.84060   0.84130   0.84669   0.84915   0.85995
 Alpha virt. eigenvalues --    0.86311   0.86866   0.87194   0.87242   0.88332
 Alpha virt. eigenvalues --    0.89609   0.89767   0.91024   0.91643   0.92726
 Alpha virt. eigenvalues --    0.93219   0.94002   0.94224   0.95622   0.97176
 Alpha virt. eigenvalues --    0.98320   1.00438   1.00675   1.02527   1.03664
 Alpha virt. eigenvalues --    1.03724   1.06710   1.09413   1.11578   1.13000
 Alpha virt. eigenvalues --    1.35247   1.35525   1.35976   1.36567   1.36639
 Alpha virt. eigenvalues --    1.36934   1.37253   1.37411   1.37976   1.38036
 Alpha virt. eigenvalues --    1.38672   1.38763   1.39026   1.39270   1.39349
 Alpha virt. eigenvalues --    1.39528   1.39624   1.39830   1.39871   1.39888
 Alpha virt. eigenvalues --    1.40250   1.40255   1.40263   1.40556   1.40556
 Alpha virt. eigenvalues --    1.40557   1.40891   1.41229   1.41352   1.41474
 Alpha virt. eigenvalues --    1.41525   1.41935   1.41937   1.42114   1.42190
 Alpha virt. eigenvalues --    1.42268   1.42269   1.42475   1.42991   1.43057
 Alpha virt. eigenvalues --    1.43667   1.43824   1.43968   1.44300   1.44335
 Alpha virt. eigenvalues --    1.44714   1.44834   1.44835   1.44991   1.45223
 Alpha virt. eigenvalues --    1.45224   1.45388   1.45653   1.46032   1.46541
 Alpha virt. eigenvalues --    1.46879   1.47272   1.47503   1.47866   1.47990
 Alpha virt. eigenvalues --    1.48002   1.48639   1.48642   1.48903   1.49116
 Alpha virt. eigenvalues --    1.49116   1.49871   1.50647   1.50801   1.51480
 Alpha virt. eigenvalues --    1.51480   1.52271   1.52274   1.52845   1.52848
          Condensed to atoms (all electrons):
 Mulliken atomic charges:
              1
     1  H   -0.003617
     2  H    0.003610
     3  H   -0.004072
     4  H    0.004071
     5  H   -0.004144
     6  H    0.004141
     7  H   -0.004072
     8  H    0.004071
     9  H   -0.003617
    10  H    0.003610
    11  H   -0.000362
    12  H    0.000361
    13  H   -0.000432
    14  H    0.000436
    15  H   -0.000454
    16  H    0.000457
    17  H   -0.000432
    18  H    0.000436
    19  H   -0.000362
    20  H    0.000361
    21  H   -0.000112
    22  H    0.000110
    23  H   -0.000129
    24  H    0.000132
    25  H   -0.000136
    26  H    0.000139
    27  H   -0.000129
    28  H    0.000132
    29  H   -0.000112
    30  H    0.000110
    31  H   -0.000050
    32  H    0.000047
    33  H   -0.000053
    34  H    0.000056
    35  H   -0.000056
    36  H    0.000058
    37  H   -0.000053
    38  H    0.000056
    39  H   -0.000050
    40  H    0.000047
    41  H   -0.000026
    42  H    0.000023
    43  H   -0.000025
    44  H    0.000028
    45  H   -0.000027
    46  H    0.000028
    47  H   -0.000025
    48  H    0.000028
    49  H   -0.000026
    50  H    0.000023
    51  H   -0.000014
    52  H    0.000011
    53  H   -0.000012
    54  H    0.000015
    55  H   -0.000013
    56  H    0.000014
    57  H   -0.000012
    58  H    0.000015
    59  H   -0.000014
    60  H    0.000011
    61  H   -0.000007
    62  H    0.000004
    63  H   -0.000004
    64  H    0.000007
    65  H   -0.000005
    66  H    0.000007
    67  H   -0.000004
    68  H    0.000007
    69  H   -0.000007
    70  H    0.000004
    71  H   -0.000002
    72  H   -0.000002
    73  H    0.000001
    74  H    0.000001
    75  H    0.000001
    76  H    0.000001
    77  H    0.000001
    78  H    0.000001
    79  H   -0.000002
    80  H   -0.000002
    81  H    0.000004
    82  H   -0.000007
    83  H    0.000007
    84  H   -0.000004
    85  H    0.000007
    86  H   -0.000005
    87  H    0.000007
    88  H   -0.000004
    89  H    0.000004
    90  H   -0.000007
    91  H    0.000011
    92  H   -0.000014
    93  H    0.000015
    94  H   -0.000012
    95  H    0.000014
    96  H   -0.000013
    97  H    0.000015
    98  H   -0.000012
    99  H    0.000011
   100  H   -0.000014
   101  H    0.000023
   102  H   -0.000026
   103  H    0.000028
   104  H   -0.000025
   105  H    0.000028
   106  H   -0.000027
   107  H    0.000028
   108  H   -0.000025
   109  H    0.000023
   110  H   -0.000026
   111  H    0.000047
   112  H   -0.000050
   113  H    0.000056
   114  H   -0.000053
   115  H    0.000058
   116  H   -0.000056
   117  H    0.000056
   118  H   -0.000053
   119  H    0.000047
   120  H   -0.000050
   121  H    0.000110
   122  H   -0.000112
   123  H    0.000132
   124  H   -0.000129
   125  H    0.000139
   126  H   -0.000136
   127  H    0.000132
   128  H   -0.000129
   129  H    0.000110
   130  H   -0.000112
   131  H    0.000361
   132  H   -0.000362
   133  H    0.000436
   134  H   -0.000432
   135  H    0.000457
   136  H   -0.000454
   137  H    0.000436
   138  H   -0.000432
   139  H    0.000361
   140  H   -0.000362
   141  H    0.003610
   142  H   -0.003617
   143  H    0.004071
   144  H   -0.004072
   145  H    0.004141
   146  H   -0.004144
   147  H    0.004071
   148  H   -0.004072
   149  H    0.003610
   150  H   -0.003617
 Sum of Mulliken atomic charges =   0.00000
 Mulliken charges with hydrogens summed into heavy atoms:
              1
 Sum of Mulliken charges with hydrogens summed into heavy atoms =   0.00000
 Electronic spatial extent (au):  <R**2>=         371579.4353
 Charge=              0.0000 electrons
 Dipole moment (field-independent basis, Debye):
    X=              0.0000    Y=              0.0000    Z=              0.0000  Tot=              0.0000
 Quadrupole moment (field-independent basis, Debye-Ang):
   XX=           -130.8871   YY=           -147.3662   ZZ=           -153.9514
   XY=             12.3755   XZ=              0.0000   YZ=              0.0000
 Traceless Quadrupole moment (field-independent basis, Debye-Ang):
   XX=             13.1811   YY=             -3.2980   ZZ=             -9.8831
   XY=             12.3755   XZ=              0.0000   YZ=              0.0000
 Octapole moment (field-independent basis, Debye-Ang**2):
  XXX=              0.0000  YYY=           9594.1597  ZZZ=          -2771.1243  XYY=           -537.1295
  XXY=           2840.4334  XXZ=           -785.3226  XZZ=              0.0000  YZZ=           3340.9598
  YYZ=           -884.1973  XYZ=             74.2527
 Hexadecapole moment (field-independent basis, Debye-Ang**3):
 XXXX=           -189.9539 YYYY=        -564398.9873 ZZZZ=         -49964.7774 XXXY=            -18.6044
 XXXZ=              0.0000 YYYX=          23881.2500 YYYZ=          57564.9584 ZZZX=              0.0000
 ZZZY=          60137.2771 XXYY=         -83694.6023 XXZZ=          -7124.7504 YYZZ=        -106379.3761
 XXYZ=          17042.6005 YYXZ=          -3222.7771 ZZXY=            663.7644
 N-N= 5.918749173748D+02 E-N=-1.348622453601D+03  KE= 8.515307627606D+01
 Leave Link  601 at Fri Aug 19 18:45:41 2011, MaxMem=   33554432 cpu:       0.1
 (Enter /Users/miao/Workspace/g09/l9999.exe)
 1\1\GINC-QTPCLNT135\SP\RHF\6-31G\H150\MIAO\19-Aug-2011\0\\#p NoSymmetr
 y HF/6-31g scf=tight nofmm\\water\\0,1\H,0,0.3032,-0.494,0.\H,0,-0.303
 2,-0.9088,0.\H,0,0.3032,-0.494,3.\H,0,-0.3032,-0.9088,3.\H,0,0.3032,-0
 .494,6.\H,0,-0.3032,-0.9088,6.\H,0,0.3032,-0.494,9.\H,0,-0.3032,-0.908
 8,9.\H,0,0.3032,-0.494,12.\H,0,-0.3032,-0.9088,12.\H,0,0.3032,-3.494,0
 .\H,0,-0.3032,-3.9088,0.\H,0,0.3032,-3.494,3.\H,0,-0.3032,-3.9088,3.\H
 ,0,0.3032,-3.494,6.\H,0,-0.3032,-3.9088,6.\H,0,0.3032,-3.494,9.\H,0,-0
 .3032,-3.9088,9.\H,0,0.3032,-3.494,12.\H,0,-0.3032,-3.9088,12.\H,0,0.3
 032,-6.494,0.\H,0,-0.3032,-6.9088,0.\H,0,0.3032,-6.494,3.\H,0,-0.3032,
 -6.9088,3.\H,0,0.3032,-6.494,6.\H,0,-0.3032,-6.9088,6.\H,0,0.3032,-6.4
 94,9.\H,0,-0.3032,-6.9088,9.\H,0,0.3032,-6.494,12.\H,0,-0.3032,-6.9088
 ,12.\H,0,0.3032,-9.494,0.\H,0,-0.3032,-9.9088,0.\H,0,0.3032,-9.494,3.\
 H,0,-0.3032,-9.9088,3.\H,0,0.3032,-9.494,6.\H,0,-0.3032,-9.9088,6.\H,0
 ,0.3032,-9.494,9.\H,0,-0.3032,-9.9088,9.\H,0,0.3032,-9.494,12.\H,0,-0.
 3032,-9.9088,12.\H,0,0.3032,-12.494,0.\H,0,-0.3032,-12.9088,0.\H,0,0.3
 032,-12.494,3.\H,0,-0.3032,-12.9088,3.\H,0,0.3032,-12.494,6.\H,0,-0.30
 32,-12.9088,6.\H,0,0.3032,-12.494,9.\H,0,-0.3032,-12.9088,9.\H,0,0.303
 2,-12.494,12.\H,0,-0.3032,-12.9088,12.\H,0,0.3032,-15.494,0.\H,0,-0.30
 32,-15.9088,0.\H,0,0.3032,-15.494,3.\H,0,-0.3032,-15.9088,3.\H,0,0.303
 2,-15.494,6.\H,0,-0.3032,-15.9088,6.\H,0,0.3032,-15.494,9.\H,0,-0.3032
 ,-15.9088,9.\H,0,0.3032,-15.494,12.\H,0,-0.3032,-15.9088,12.\H,0,0.303
 2,-18.494,0.\H,0,-0.3032,-18.9088,0.\H,0,0.3032,-18.494,3.\H,0,-0.3032
 ,-18.9088,3.\H,0,0.3032,-18.494,6.\H,0,-0.3032,-18.9088,6.\H,0,0.3032,
 -18.494,9.\H,0,-0.3032,-18.9088,9.\H,0,0.3032,-18.494,12.\H,0,-0.3032,
 -18.9088,12.\H,0,0.3032,-21.494,0.\H,0,-0.3032,-21.9088,0.\H,0,0.3032,
 -21.494,3.\H,0,-0.3032,-21.9088,3.\H,0,0.3032,-21.494,6.\H,0,-0.3032,-
 21.9088,6.\H,0,0.3032,-21.494,9.\H,0,-0.3032,-21.9088,9.\H,0,0.3032,-2
 1.494,12.\H,0,-0.3032,-21.9088,12.\H,0,0.3032,-24.494,0.\H,0,-0.3032,-
 24.9088,0.\H,0,0.3032,-24.494,3.\H,0,-0.3032,-24.9088,3.\H,0,0.3032,-2
 4.494,6.\H,0,-0.3032,-24.9088,6.\H,0,0.3032,-24.494,9.\H,0,-0.3032,-24
 .9088,9.\H,0,0.3032,-24.494,12.\H,0,-0.3032,-24.9088,12.\H,0,0.3032,-2
 7.494,0.\H,0,-0.3032,-27.9088,0.\H,0,0.3032,-27.494,3.\H,0,-0.3032,-27
 .9088,3.\H,0,0.3032,-27.494,6.\H,0,-0.3032,-27.9088,6.\H,0,0.3032,-27.
 494,9.\H,0,-0.3032,-27.9088,9.\H,0,0.3032,-27.494,12.\H,0,-0.3032,-27.
 9088,12.\H,0,0.3032,-30.494,0.\H,0,-0.3032,-30.9088,0.\H,0,0.3032,-30.
 494,3.\H,0,-0.3032,-30.9088,3.\H,0,0.3032,-30.494,6.\H,0,-0.3032,-30.9
 088,6.\H,0,0.3032,-30.494,9.\H,0,-0.3032,-30.9088,9.\H,0,0.3032,-30.49
 4,12.\H,0,-0.3032,-30.9088,12.\H,0,0.3032,-33.494,0.\H,0,-0.3032,-33.9
 088,0.\H,0,0.3032,-33.494,3.\H,0,-0.3032,-33.9088,3.\H,0,0.3032,-33.49
 4,6.\H,0,-0.3032,-33.9088,6.\H,0,0.3032,-33.494,9.\H,0,-0.3032,-33.908
 8,9.\H,0,0.3032,-33.494,12.\H,0,-0.3032,-33.9088,12.\H,0,0.3032,-36.49
 4,0.\H,0,-0.3032,-36.9088,0.\H,0,0.3032,-36.494,3.\H,0,-0.3032,-36.908
 8,3.\H,0,0.3032,-36.494,6.\H,0,-0.3032,-36.9088,6.\H,0,0.3032,-36.494,
 9.\H,0,-0.3032,-36.9088,9.\H,0,0.3032,-36.494,12.\H,0,-0.3032,-36.9088
 ,12.\H,0,0.3032,-39.494,0.\H,0,-0.3032,-39.9088,0.\H,0,0.3032,-39.494,
 3.\H,0,-0.3032,-39.9088,3.\H,0,0.3032,-39.494,6.\H,0,-0.3032,-39.9088,
 6.\H,0,0.3032,-39.494,9.\H,0,-0.3032,-39.9088,9.\H,0,0.3032,-39.494,12
 .\H,0,-0.3032,-39.9088,12.\H,0,0.3032,-42.494,0.\H,0,-0.3032,-42.9088,
 0.\H,0,0.3032,-42.494,3.\H,0,-0.3032,-42.9088,3.\H,0,0.3032,-42.494,6.
 \H,0,-0.3032,-42.9088,6.\H,0,0.3032,-42.494,9.\H,0,-0.3032,-42.9088,9.
 \H,0,0.3032,-42.494,12.\H,0,-0.3032,-42.9088,12.\\Version=EM64M-G09Rev
 A.02\HF=-84.4529515\RMSD=2.660e-09\Dipole=0.,0.,0.\Quadrupole=9.799839
 9,-2.4519775,-7.3478624,9.2008501,0.,0.\PG=C02H [SGH(H30),X(H120)]\\@


 CONTRAIWISE...CONTINUED TWEEDLEDEE, IF IT WAS SO, IT MIGHT BE,
 AND IF IT WERE SO, IT WOULD BE.....
 BUT AS IT ISN'T, IT AIN'T....
 THAT'S LOGIC.....
 ALICE THROUGH THE LOOKING GLASS
 Job cpu time:  0 days  0 hours  0 minutes 38.1 seconds.
 File lengths (MBytes):  RWF=     54 Int=      0 D2E=      0 Chk=      5 Scr=      1
 Normal termination of Gaussian 09 at Fri Aug 19 18:45:41 2011.
