 Entering Gaussian System, Link 0=g09
 Input=benzene.gjf
 Output=benzene.log
 Initial command:
 /Users/miao/Workspace/g09/l1.exe /Users/miao/Workspace/new_quick/example/benzene/Gau-33142.inp -scrdir=/Users/miao/Workspace/new_quick/example/benzene/
 Entering Link 1 = /Users/miao/Workspace/g09/l1.exe PID=     33143.
  
 Copyright (c) 1988,1990,1992,1993,1995,1998,2003,2009, Gaussian, Inc.
                  All Rights Reserved.
  
 This is part of the Gaussian(R) 09 program.  It is based on
 the Gaussian(R) 03 system (copyright 2003, Gaussian, Inc.),
 the Gaussian(R) 98 system (copyright 1998, Gaussian, Inc.),
 the Gaussian(R) 94 system (copyright 1995, Gaussian, Inc.),
 the Gaussian 92(TM) system (copyright 1992, Gaussian, Inc.),
 the Gaussian 90(TM) system (copyright 1990, Gaussian, Inc.),
 the Gaussian 88(TM) system (copyright 1988, Gaussian, Inc.),
 the Gaussian 86(TM) system (copyright 1986, Carnegie Mellon
 University), and the Gaussian 82(TM) system (copyright 1983,
 Carnegie Mellon University). Gaussian is a federally registered
 trademark of Gaussian, Inc.
  
 This software contains proprietary and confidential information,
 including trade secrets, belonging to Gaussian, Inc.
  
 This software is provided under written license and may be
 used, copied, transmitted, or stored only in accord with that
 written license.
  
 The following legend is applicable only to US Government
 contracts under FAR:
  
                    RESTRICTED RIGHTS LEGEND
  
 Use, reproduction and disclosure by the US Government is
 subject to restrictions as set forth in subparagraphs (a)
 and (c) of the Commercial Computer Software - Restricted
 Rights clause in FAR 52.227-19.
  
 Gaussian, Inc.
 340 Quinnipiac St., Bldg. 40, Wallingford CT 06492
  
  
 ---------------------------------------------------------------
 Warning -- This program may not be used in any manner that
 competes with the business of Gaussian, Inc. or will provide
 assistance to any competitor of Gaussian, Inc.  The licensee
 of this program is prohibited from giving any competitor of
 Gaussian, Inc. access to this program.  By using this program,
 the user acknowledges that Gaussian, Inc. is engaged in the
 business of creating and licensing software in the field of
 computational chemistry and represents and warrants to the
 licensee that it is not a competitor of Gaussian, Inc. and that
 it will not use this program in any manner prohibited above.
 ---------------------------------------------------------------
  

 Cite this work as:
 Gaussian 09, Revision A.02,
 M. J. Frisch, G. W. Trucks, H. B. Schlegel, G. E. Scuseria, 
 M. A. Robb, J. R. Cheeseman, G. Scalmani, V. Barone, B. Mennucci, 
 G. A. Petersson, H. Nakatsuji, M. Caricato, X. Li, H. P. Hratchian, 
 A. F. Izmaylov, J. Bloino, G. Zheng, J. L. Sonnenberg, M. Hada, 
 M. Ehara, K. Toyota, R. Fukuda, J. Hasegawa, M. Ishida, T. Nakajima, 
 Y. Honda, O. Kitao, H. Nakai, T. Vreven, J. A. Montgomery, Jr., 
 J. E. Peralta, F. Ogliaro, M. Bearpark, J. J. Heyd, E. Brothers, 
 K. N. Kudin, V. N. Staroverov, R. Kobayashi, J. Normand, 
 K. Raghavachari, A. Rendell, J. C. Burant, S. S. Iyengar, J. Tomasi, 
 M. Cossi, N. Rega, J. M. Millam, M. Klene, J. E. Knox, J. B. Cross, 
 V. Bakken, C. Adamo, J. Jaramillo, R. Gomperts, R. E. Stratmann, 
 O. Yazyev, A. J. Austin, R. Cammi, C. Pomelli, J. W. Ochterski, 
 R. L. Martin, K. Morokuma, V. G. Zakrzewski, G. A. Voth, 
 P. Salvador, J. J. Dannenberg, S. Dapprich, A. D. Daniels, 
 O. Farkas, J. B. Foresman, J. V. Ortiz, J. Cioslowski, 
 and D. J. Fox, Gaussian, Inc., Wallingford CT, 2009.
 
 ******************************************
 Gaussian 09:  EM64M-G09RevA.02 11-Jun-2009
                 1-Dec-2011 
 ******************************************
 %chk=benzene.chk
 %nproc=1
 Will use up to    1 processors via shared memory.
 --------------------------------------------
 # scf=tight blyp/3-21g opt geom=connectivity
 --------------------------------------------
 1/14=-1,18=20,19=15,26=3,38=1,57=2/1,3;
 2/9=110,12=2,17=6,18=5,40=1/2;
 3/5=5,11=2,16=1,25=1,30=1,71=1,74=402/1,2,3;
 4//1;
 5/5=2,32=2,38=5/2;
 6/7=2,8=2,9=2,10=2,28=1/1;
 7//1,2,3,16;
 1/14=-1,18=20,19=15/3(2);
 2/9=110/2;
 99//99;
 2/9=110/2;
 3/5=5,11=2,16=1,25=1,30=1,71=1,74=402/1,2,3;
 4/5=5,16=3/1;
 5/5=2,32=2,38=5/2;
 7//1,2,3,16;
 1/14=-1,18=20,19=15/3(-5);
 2/9=110/2;
 6/7=2,8=2,9=2,10=2,19=2,28=1/1;
 99/9=1/99;
 -------------------
 Title Card Required
 -------------------
 Symbolic Z-matrix:
 Charge =  0 Multiplicity = 1
 C                    -3.57841   1.32763  -1.11329 
 C                    -2.18325   1.32763  -1.11329 
 C                    -1.48572   2.53538  -1.11329 
 C                    -2.18337   3.74389  -1.11449 
 C                    -3.57819   3.74381  -1.11497 
 C                    -4.2758    2.53561  -1.11397 
 H                    -4.12817   0.37531  -1.11284 
 H                    -1.63375   0.37512  -1.11198 
 H                    -0.38604   2.53546  -1.11266 
 H                    -1.63317   4.69603  -1.11455 
 H                    -4.12832   4.69609  -1.11592 
 H                    -5.3754    2.53579  -1.11415 
 

 GradGradGradGradGradGradGradGradGradGradGradGradGradGradGradGradGradGrad
 Berny optimization.
 Initialization pass.
                           ----------------------------
                           !    Initial Parameters    !
                           ! (Angstroms and Degrees)  !
 --------------------------                            --------------------------
 ! Name  Definition              Value          Derivative Info.                !
 --------------------------------------------------------------------------------
 ! R1    R(1,2)                  1.3952         estimate D2E/DX2                !
 ! R2    R(1,6)                  1.3948         estimate D2E/DX2                !
 ! R3    R(1,7)                  1.0996         estimate D2E/DX2                !
 ! R4    R(2,3)                  1.3947         estimate D2E/DX2                !
 ! R5    R(2,8)                  1.0997         estimate D2E/DX2                !
 ! R6    R(3,4)                  1.3954         estimate D2E/DX2                !
 ! R7    R(3,9)                  1.0997         estimate D2E/DX2                !
 ! R8    R(4,5)                  1.3948         estimate D2E/DX2                !
 ! R9    R(4,10)                 1.0997         estimate D2E/DX2                !
 ! R10   R(5,6)                  1.3951         estimate D2E/DX2                !
 ! R11   R(5,11)                 1.0998         estimate D2E/DX2                !
 ! R12   R(6,12)                 1.0996         estimate D2E/DX2                !
 ! A1    A(2,1,6)              119.9985         estimate D2E/DX2                !
 ! A2    A(2,1,7)              119.9972         estimate D2E/DX2                !
 ! A3    A(6,1,7)              120.0043         estimate D2E/DX2                !
 ! A4    A(1,2,3)              120.0086         estimate D2E/DX2                !
 ! A5    A(1,2,8)              119.9808         estimate D2E/DX2                !
 ! A6    A(3,2,8)              120.0106         estimate D2E/DX2                !
 ! A7    A(2,3,4)              119.9942         estimate D2E/DX2                !
 ! A8    A(2,3,9)              120.0128         estimate D2E/DX2                !
 ! A9    A(4,3,9)              119.993          estimate D2E/DX2                !
 ! A10   A(3,4,5)              119.994          estimate D2E/DX2                !
 ! A11   A(3,4,10)             119.9811         estimate D2E/DX2                !
 ! A12   A(5,4,10)             120.0249         estimate D2E/DX2                !
 ! A13   A(4,5,6)              120.0047         estimate D2E/DX2                !
 ! A14   A(4,5,11)             120.0113         estimate D2E/DX2                !
 ! A15   A(6,5,11)             119.984          estimate D2E/DX2                !
 ! A16   A(1,6,5)              120.0            estimate D2E/DX2                !
 ! A17   A(1,6,12)             120.008          estimate D2E/DX2                !
 ! A18   A(5,6,12)             119.992          estimate D2E/DX2                !
 ! D1    D(6,1,2,3)              0.0323         estimate D2E/DX2                !
 ! D2    D(6,1,2,8)            179.9532         estimate D2E/DX2                !
 ! D3    D(7,1,2,3)           -179.9729         estimate D2E/DX2                !
 ! D4    D(7,1,2,8)             -0.052          estimate D2E/DX2                !
 ! D5    D(2,1,6,5)              0.0149         estimate D2E/DX2                !
 ! D6    D(2,1,6,12)           179.9892         estimate D2E/DX2                !
 ! D7    D(7,1,6,5)           -179.9798         estimate D2E/DX2                !
 ! D8    D(7,1,6,12)            -0.0056         estimate D2E/DX2                !
 ! D9    D(1,2,3,4)             -0.0568         estimate D2E/DX2                !
 ! D10   D(1,2,3,9)            179.9619         estimate D2E/DX2                !
 ! D11   D(8,2,3,4)           -179.9777         estimate D2E/DX2                !
 ! D12   D(8,2,3,9)              0.041          estimate D2E/DX2                !
 ! D13   D(2,3,4,5)              0.0341         estimate D2E/DX2                !
 ! D14   D(2,3,4,10)          -179.9964         estimate D2E/DX2                !
 ! D15   D(9,3,4,5)           -179.9846         estimate D2E/DX2                !
 ! D16   D(9,3,4,10)            -0.0151         estimate D2E/DX2                !
 ! D17   D(3,4,5,6)              0.0131         estimate D2E/DX2                !
 ! D18   D(3,4,5,11)          -179.9995         estimate D2E/DX2                !
 ! D19   D(10,4,5,6)          -179.9563         estimate D2E/DX2                !
 ! D20   D(10,4,5,11)            0.0311         estimate D2E/DX2                !
 ! D21   D(4,5,6,1)             -0.0376         estimate D2E/DX2                !
 ! D22   D(4,5,6,12)           179.9881         estimate D2E/DX2                !
 ! D23   D(11,5,6,1)           179.975          estimate D2E/DX2                !
 ! D24   D(11,5,6,12)            0.0007         estimate D2E/DX2                !
 --------------------------------------------------------------------------------
 Trust Radius=3.00D-01 FncErr=1.00D-07 GrdErr=1.00D-06
 Number of steps in this run=  64 maximum allowed number of steps= 100.
 GradGradGradGradGradGradGradGradGradGradGradGradGradGradGradGradGradGrad

                          Input orientation:                          
 ---------------------------------------------------------------------
 Center     Atomic      Atomic             Coordinates (Angstroms)
 Number     Number       Type             X           Y           Z
 ---------------------------------------------------------------------
      1          6           0       -3.578414    1.327631   -1.113291
      2          6           0       -2.183254    1.327631   -1.113291
      3          6           0       -1.485716    2.535382   -1.113291
      4          6           0       -2.183370    3.743891   -1.114490
      5          6           0       -3.578195    3.743813   -1.114969
      6          6           0       -4.275796    2.535607   -1.113973
      7          1           0       -4.128173    0.375314   -1.112841
      8          1           0       -1.633746    0.375118   -1.111976
      9          1           0       -0.386036    2.535462   -1.112657
     10          1           0       -1.633170    4.696034   -1.114549
     11          1           0       -4.128317    4.696094   -1.115922
     12          1           0       -5.375400    2.535790   -1.114153
 ---------------------------------------------------------------------
                    Distance matrix (angstroms):
                    1          2          3          4          5
     1  C    0.000000
     2  C    1.395160   0.000000
     3  C    2.416205   1.394712   0.000000
     4  C    2.790065   2.416260   1.395427   0.000000
     5  C    2.416183   2.789946   2.416356   1.394825   0.000000
     6  C    1.394829   2.416183   2.790080   2.416236   1.395138
     7  H    1.099610   2.165553   3.412986   3.889675   3.413102
     8  H    2.165414   1.099655   2.165330   3.413316   3.889601
     9  H    3.413229   2.165375   1.099680   2.165806   3.413209
    10  H    3.889745   3.413024   2.165678   1.099680   2.165606
    11  H    3.413055   3.889707   3.413506   2.165528   1.099761
    12  H    2.165365   3.413128   3.889684   3.412999   2.165471
                    6          7          8          9         10
     6  C    0.000000
     7  H    2.165331   0.000000
     8  H    3.412938   2.494427   0.000000
     9  H    3.889760   4.320860   2.494768   0.000000
    10  H    3.413344   4.989355   4.320917   2.494678   0.000000
    11  H    2.165516   4.320781   4.989362   4.321228   2.495147
    12  H    1.099604   2.494641   4.320704   4.989364   4.320988
                   11         12
    11  H    0.000000
    12  H    2.494420   0.000000
 Stoichiometry    C6H6
 Framework group  C1[X(C6H6)]
 Deg. of freedom    30
 Full point group                 C1      NOp   1
 Largest Abelian subgroup         C1      NOp   1
 Largest concise Abelian subgroup C1      NOp   1
                         Standard orientation:                         
 ---------------------------------------------------------------------
 Center     Atomic      Atomic             Coordinates (Angstroms)
 Number     Number       Type             X           Y           Z
 ---------------------------------------------------------------------
      1          6           0       -0.176717   -1.383752    0.000564
      2          6           0        1.110106   -0.844719    0.000564
      3          6           0        1.286853    0.538749    0.000564
      4          6           0        0.176454    1.383870   -0.000635
      5          6           0       -1.110030    0.844894   -0.001114
      6          6           0       -1.286660   -0.539018   -0.000118
      7          1           0       -0.315850   -2.474525    0.001014
      8          1           0        1.984956   -1.510960    0.001879
      9          1           0        2.301110    0.963695    0.001198
     10          1           0        0.316060    2.474652   -0.000694
     11          1           0       -1.985357    1.510684   -0.002067
     12          1           0       -2.300948   -0.963691   -0.000298
 ---------------------------------------------------------------------
 Rotational constants (GHZ):      5.6865650      5.6862639      2.8432074
 Standard basis: 3-21G (6D, 7F)
 There are    66 symmetry adapted basis functions of A   symmetry.
 Integral buffers will be    131072 words long.
 Raffenetti 2 integral format.
 Two-electron integral symmetry is turned on.
    66 basis functions,   108 primitive gaussians,    66 cartesian basis functions
    21 alpha electrons       21 beta electrons
       nuclear repulsion energy       203.0307482098 Hartrees.
 NAtoms=   12 NActive=   12 NUniq=   12 SFac= 7.50D-01 NAtFMM=   80 NAOKFM=F Big=F
 One-electron integrals computed using PRISM.
 NBasis=    66 RedAO= T  NBF=    66
 NBsUse=    66 1.00D-06 NBFU=    66
 Harris functional with IExCor=  402 diagonalized for initial guess.
 ExpMin= 1.83D-01 ExpMax= 1.72D+02 ExpMxC= 1.72D+02 IAcc=1 IRadAn=         1 AccDes= 0.00D+00
 HarFok:  IExCor=  402 AccDes= 0.00D+00 IRadAn=         1 IDoV= 1
 ScaDFX=  1.000000  1.000000  1.000000  1.000000
 FoFCou: FMM=F IPFlag=           0 FMFlag=      100000 FMFlg1=           0
         NFxFlg=           0 DoJE=T BraDBF=F KetDBF=T FulRan=T
         Omega=  0.000000  0.000000  1.000000  0.000000  0.000000 ICntrl=     500 IOpCl=  0
         NMat0=    1 NMatS0=    1 NMatT0=    0 NMatD0=    1 NMtDS0=    0 NMtDT0=    0
         I1Cent=           4 NGrid=           0.
 Petite list used in FoFCou.
 Initial guess orbital symmetries:
       Occupied  (A) (A) (A) (A) (A) (A) (A) (A) (A) (A) (A) (A)
                 (A) (A) (A) (A) (A) (A) (A) (A) (A)
       Virtual   (A) (A) (A) (A) (A) (A) (A) (A) (A) (A) (A) (A)
                 (A) (A) (A) (A) (A) (A) (A) (A) (A) (A) (A) (A)
                 (A) (A) (A) (A) (A) (A) (A) (A) (A) (A) (A) (A)
                 (A) (A) (A) (A) (A) (A) (A) (A) (A)
 The electronic state of the initial guess is 1-A.
 Requested convergence on RMS density matrix=1.00D-08 within 128 cycles.
 Requested convergence on MAX density matrix=1.00D-06.
 Requested convergence on             energy=1.00D-06.
 No special actions if energy rises.
 Keep J ints in memory in canonical form, NReq=3461236.
 Integral accuracy reduced to 1.0D-05 until final iterations.
 Initial convergence to 1.0D-05 achieved.  Increase integral accuracy.
 SCF Done:  E(RB-LYP) =  -230.857779485     A.U. after   13 cycles
             Convg  =    0.5073D-08             -V/T =  2.0086

 **********************************************************************

            Population analysis using the SCF density.

 **********************************************************************

 Orbital symmetries:
       Occupied  (A) (A) (A) (A) (A) (A) (A) (A) (A) (A) (A) (A)
                 (A) (A) (A) (A) (A) (A) (A) (A) (A)
       Virtual   (A) (A) (A) (A) (A) (A) (A) (A) (A) (A) (A) (A)
                 (A) (A) (A) (A) (A) (A) (A) (A) (A) (A) (A) (A)
                 (A) (A) (A) (A) (A) (A) (A) (A) (A) (A) (A) (A)
                 (A) (A) (A) (A) (A) (A) (A) (A) (A)
 The electronic state is 1-A.
 Alpha  occ. eigenvalues --   -9.86190  -9.86114  -9.86113  -9.85977  -9.85976
 Alpha  occ. eigenvalues --   -9.85859  -0.76784  -0.66412  -0.66409  -0.53314
 Alpha  occ. eigenvalues --   -0.53310  -0.46386  -0.39660  -0.39506  -0.36853
 Alpha  occ. eigenvalues --   -0.36852  -0.31649  -0.29376  -0.29369  -0.21384
 Alpha  occ. eigenvalues --   -0.21381
 Alpha virt. eigenvalues --   -0.01497  -0.01492   0.07690   0.13046   0.13227
 Alpha virt. eigenvalues --    0.13229   0.17579   0.17581   0.17996   0.29406
 Alpha virt. eigenvalues --    0.29414   0.30936   0.30944   0.53301   0.53806
 Alpha virt. eigenvalues --    0.62918   0.64737   0.65734   0.69046   0.69056
 Alpha virt. eigenvalues --    0.73749   0.73749   0.75008   0.75013   0.78169
 Alpha virt. eigenvalues --    0.78170   0.83145   0.85693   0.90193   0.93973
 Alpha virt. eigenvalues --    0.93975   1.04778   1.04782   1.05372   1.25767
 Alpha virt. eigenvalues --    1.25774   1.26922   1.40198   1.41729   1.41735
 Alpha virt. eigenvalues --    1.49750   1.49753   1.83663   1.83674   2.41585
          Condensed to atoms (all electrons):
              1          2          3          4          5          6
     1  C    5.140598   0.445980  -0.074170  -0.030442  -0.074185   0.446097
     2  C    0.445980   5.140523   0.446082  -0.074175  -0.030439  -0.074184
     3  C   -0.074170   0.446082   5.140621   0.445951  -0.074159  -0.030442
     4  C   -0.030442  -0.074175   0.445951   5.140589   0.446124  -0.074170
     5  C   -0.074185  -0.030439  -0.074159   0.446124   5.140510   0.445941
     6  C    0.446097  -0.074184  -0.030442  -0.074170   0.445941   5.140628
     7  H    0.384018  -0.042632   0.004373  -0.000196   0.004375  -0.042653
     8  H   -0.042652   0.383995  -0.042655   0.004373  -0.000196   0.004375
     9  H    0.004373  -0.042651   0.384007  -0.042614   0.004370  -0.000196
    10  H   -0.000196   0.004373  -0.042634   0.383996  -0.042626   0.004371
    11  H    0.004374  -0.000196   0.004371  -0.042640   0.383981  -0.042649
    12  H   -0.042644   0.004374  -0.000196   0.004373  -0.042642   0.384019
              7          8          9         10         11         12
     1  C    0.384018  -0.042652   0.004373  -0.000196   0.004374  -0.042644
     2  C   -0.042632   0.383995  -0.042651   0.004373  -0.000196   0.004374
     3  C    0.004373  -0.042655   0.384007  -0.042634   0.004371  -0.000196
     4  C   -0.000196   0.004373  -0.042614   0.383996  -0.042640   0.004373
     5  C    0.004375  -0.000196   0.004370  -0.042626   0.383981  -0.042642
     6  C   -0.042653   0.004375  -0.000196   0.004371  -0.042649   0.384019
     7  H    0.541041  -0.004667  -0.000057   0.000002  -0.000057  -0.004669
     8  H   -0.004667   0.541089  -0.004669  -0.000057   0.000002  -0.000057
     9  H   -0.000057  -0.004669   0.541032  -0.004661  -0.000057   0.000002
    10  H    0.000002  -0.000057  -0.004661   0.541034  -0.004665  -0.000057
    11  H   -0.000057   0.000002  -0.000057  -0.004665   0.541096  -0.004667
    12  H   -0.004669  -0.000057   0.000002  -0.000057  -0.004667   0.541035
 Mulliken atomic charges:
              1
     1  C   -0.161151
     2  C   -0.161050
     3  C   -0.161150
     4  C   -0.161170
     5  C   -0.161055
     6  C   -0.161139
     7  H    0.161121
     8  H    0.161119
     9  H    0.161121
    10  H    0.161118
    11  H    0.161107
    12  H    0.161128
 Sum of Mulliken atomic charges =   0.00000
 Mulliken charges with hydrogens summed into heavy atoms:
              1
     1  C   -0.000030
     2  C    0.000069
     3  C   -0.000029
     4  C   -0.000052
     5  C    0.000052
     6  C   -0.000011
 Sum of Mulliken charges with hydrogens summed into heavy atoms =   0.00000
 Electronic spatial extent (au):  <R**2>=            459.8767
 Charge=              0.0000 electrons
 Dipole moment (field-independent basis, Debye):
    X=              0.0000    Y=             -0.0002    Z=              0.0007  Tot=              0.0008
 Quadrupole moment (field-independent basis, Debye-Ang):
   XX=            -31.5186   YY=            -31.5191   ZZ=            -39.6529
   XY=              0.0009   XZ=              0.0056   YZ=             -0.0038
 Traceless Quadrupole moment (field-independent basis, Debye-Ang):
   XX=              2.7116   YY=              2.7111   ZZ=             -5.4227
   XY=              0.0009   XZ=              0.0056   YZ=             -0.0038
 Octapole moment (field-independent basis, Debye-Ang**2):
  XXX=             -0.0037  YYY=             -0.0028  ZZZ=              0.0009  XYY=              0.0040
  XXY=              0.0017  XXZ=              0.0036  XZZ=             -0.0002  YZZ=             -0.0010
  YYZ=              0.0027  XYZ=              0.0013
 Hexadecapole moment (field-independent basis, Debye-Ang**3):
 XXXX=           -266.1783 YYYY=           -266.1668 ZZZZ=            -40.9003 XXXY=              0.0042
 XXXZ=             -0.0311 YYYX=              0.0062 YYYZ=              0.0410 ZZZX=             -0.0671
 ZZZY=              0.0664 XXYY=            -88.7261 XXZZ=            -61.2143 YYZZ=            -61.2124
 XXYZ=              0.0098 YYXZ=             -0.0088 ZZXY=              0.0002
 N-N= 2.030307482098D+02 E-N=-9.405187491740D+02  KE= 2.288847969467D+02
 Calling FoFJK, ICntrl=      2527 FMM=F ISym2X=0 I1Cent= 0 IOpClX= 0 NMat=1 NMatS=1 NMatT=0.
 ***** Axes restored to original set *****
 -------------------------------------------------------------------
 Center     Atomic                   Forces (Hartrees/Bohr)
 Number     Number              X              Y              Z
 -------------------------------------------------------------------
      1        6          -0.008390822   -0.014720954   -0.000012787
      2        6           0.008355942   -0.014761779    0.000121267
      3        6           0.016892437    0.000366786   -0.000046940
      4        6           0.008743075    0.014456604    0.000028758
      5        6          -0.008638447    0.014613542    0.000004581
      6        6          -0.016933513    0.000117409   -0.000053170
      7        1           0.002487394    0.004287548    0.000003002
      8        1          -0.002462074    0.004316751   -0.000041505
      9        1          -0.005002776   -0.000015164   -0.000004327
     10        1          -0.002535830   -0.004313213   -0.000016759
     11        1           0.002532607   -0.004354145    0.000011963
     12        1           0.004952005    0.000006616    0.000005917
 -------------------------------------------------------------------
 Cartesian Forces:  Max     0.016933513 RMS     0.007207154

 GradGradGradGradGradGradGradGradGradGradGradGradGradGradGradGradGradGrad
 Berny optimization.
 Internal  Forces:  Max     0.012086756 RMS     0.004315368
 Search for a local minimum.
 Step number   1 out of a maximum of   64
 All quantities printed in internal units (Hartrees-Bohrs-Radians)
 Mixed Optimization -- RFO/linear search
 Second derivative matrix not updated -- first step.
     Eigenvalues ---    0.02152   0.02153   0.02154   0.02155   0.02155
     Eigenvalues ---    0.02155   0.02155   0.02156   0.02157   0.16000
     Eigenvalues ---    0.16000   0.16000   0.16000   0.16000   0.16000
     Eigenvalues ---    0.22000   0.22000   0.22000   0.33709   0.33718
     Eigenvalues ---    0.33718   0.33720   0.33725   0.33726   0.42106
     Eigenvalues ---    0.42123   0.46412   0.46453   0.46466   0.46497
     Eigenvalues --- 1000.000001000.000001000.000001000.000001000.00000
     Eigenvalues --- 1000.000001000.000001000.000001000.000001000.00000
     Eigenvalues --- 1000.000001000.000001000.000001000.000001000.00000
     Eigenvalues --- 1000.000001000.000001000.000001000.000001000.00000
     Eigenvalues --- 1000.000001000.000001000.000001000.00000
 RFO step:  Lambda=-2.27418366D-03 EMin= 2.15189816D-02
 Linear search not attempted -- first point.
 Iteration  1 RMS(Cart)=  0.00927612 RMS(Int)=  0.00000346
 Iteration  2 RMS(Cart)=  0.00000253 RMS(Int)=  0.00000017
 Iteration  3 RMS(Cart)=  0.00000000 RMS(Int)=  0.00000017
 Variable       Old X    -DE/DX   Delta X   Delta X   Delta X     New X
                                 (Linear)    (Quad)   (Total)
    R1        2.63647   0.01193   0.00000   0.02558   0.02558   2.66205
    R2        2.63584   0.01203   0.00000   0.02576   0.02576   2.66160
    R3        2.07796  -0.00496   0.00000  -0.01460  -0.01460   2.06336
    R4        2.63562   0.01209   0.00000   0.02586   0.02586   2.66148
    R5        2.07805  -0.00497   0.00000  -0.01464  -0.01464   2.06341
    R6        2.63697   0.01169   0.00000   0.02506   0.02506   2.66204
    R7        2.07809  -0.00500   0.00000  -0.01474  -0.01474   2.06336
    R8        2.63584   0.01206   0.00000   0.02580   0.02580   2.66164
    R9        2.07809  -0.00500   0.00000  -0.01474  -0.01474   2.06335
   R10        2.63643   0.01188   0.00000   0.02547   0.02547   2.66190
   R11        2.07825  -0.00504   0.00000  -0.01484  -0.01484   2.06340
   R12        2.07795  -0.00495   0.00000  -0.01458  -0.01458   2.06337
    A1        2.09437  -0.00003   0.00000  -0.00008  -0.00008   2.09429
    A2        2.09435   0.00001   0.00000   0.00002   0.00002   2.09436
    A3        2.09447   0.00002   0.00000   0.00006   0.00006   2.09453
    A4        2.09455   0.00001   0.00000   0.00007   0.00007   2.09462
    A5        2.09406   0.00001   0.00000   0.00008   0.00008   2.09414
    A6        2.09458  -0.00002   0.00000  -0.00015  -0.00015   2.09443
    A7        2.09429   0.00001   0.00000  -0.00001  -0.00001   2.09428
    A8        2.09462  -0.00003   0.00000  -0.00013  -0.00013   2.09448
    A9        2.09427   0.00002   0.00000   0.00014   0.00014   2.09442
   A10        2.09429   0.00001   0.00000  -0.00001  -0.00001   2.09428
   A11        2.09407   0.00003   0.00000   0.00020   0.00020   2.09427
   A12        2.09483  -0.00004   0.00000  -0.00019  -0.00019   2.09464
   A13        2.09448   0.00004   0.00000   0.00015   0.00015   2.09462
   A14        2.09459  -0.00004   0.00000  -0.00021  -0.00021   2.09438
   A15        2.09411   0.00000   0.00000   0.00007   0.00007   2.09418
   A16        2.09440  -0.00003   0.00000  -0.00011  -0.00011   2.09428
   A17        2.09453   0.00003   0.00000   0.00015   0.00015   2.09468
   A18        2.09426   0.00000   0.00000  -0.00004  -0.00004   2.09422
    D1        0.00056  -0.00002   0.00000  -0.00069  -0.00069  -0.00012
    D2        3.14078   0.00002   0.00000   0.00082   0.00082  -3.14159
    D3       -3.14112  -0.00002   0.00000  -0.00065  -0.00065   3.14142
    D4       -0.00091   0.00002   0.00000   0.00086   0.00086  -0.00005
    D5        0.00026  -0.00001   0.00000  -0.00034  -0.00034  -0.00008
    D6        3.14140   0.00001   0.00000   0.00025   0.00025  -3.14153
    D7       -3.14124  -0.00001   0.00000  -0.00038  -0.00038   3.14157
    D8       -0.00010   0.00001   0.00000   0.00021   0.00021   0.00012
    D9       -0.00099   0.00003   0.00000   0.00121   0.00121   0.00022
   D10        3.14093   0.00002   0.00000   0.00078   0.00078  -3.14148
   D11       -3.14120  -0.00001   0.00000  -0.00029  -0.00029  -3.14149
   D12        0.00072  -0.00002   0.00000  -0.00072  -0.00072  -0.00001
   D13        0.00060  -0.00002   0.00000  -0.00072  -0.00072  -0.00013
   D14       -3.14153   0.00000   0.00000  -0.00020  -0.00020   3.14146
   D15       -3.14132  -0.00001   0.00000  -0.00029  -0.00029   3.14158
   D16       -0.00026   0.00001   0.00000   0.00024   0.00024  -0.00003
   D17        0.00023  -0.00001   0.00000  -0.00030  -0.00030  -0.00007
   D18       -3.14158   0.00000   0.00000   0.00010   0.00010  -3.14148
   D19       -3.14083  -0.00002   0.00000  -0.00082  -0.00082   3.14153
   D20        0.00054  -0.00001   0.00000  -0.00042  -0.00042   0.00012
   D21       -0.00066   0.00002   0.00000   0.00083   0.00083   0.00018
   D22        3.14138   0.00001   0.00000   0.00024   0.00024  -3.14156
   D23        3.14116   0.00001   0.00000   0.00043   0.00043   3.14158
   D24        0.00001   0.00000   0.00000  -0.00016  -0.00016  -0.00015
         Item               Value     Threshold  Converged?
 Maximum Force            0.012087     0.000450     NO 
 RMS     Force            0.004315     0.000300     NO 
 Maximum Displacement     0.025767     0.001800     NO 
 RMS     Displacement     0.009276     0.001200     NO 
 Predicted change in Energy=-1.143041D-03
 GradGradGradGradGradGradGradGradGradGradGradGradGradGradGradGradGradGrad

                          Input orientation:                          
 ---------------------------------------------------------------------
 Center     Atomic      Atomic             Coordinates (Angstroms)
 Number     Number       Type             X           Y           Z
 ---------------------------------------------------------------------
      1          6           0       -3.585237    1.315833   -1.113221
      2          6           0       -2.176540    1.315943   -1.112708
      3          6           0       -1.472166    2.535548   -1.113397
      4          6           0       -2.176471    3.755532   -1.114329
      5          6           0       -3.584951    3.755411   -1.114723
      6          6           0       -4.289431    2.535615   -1.114276
      7          1           0       -4.131076    0.370173   -1.112850
      8          1           0       -1.630757    0.370223   -1.111891
      9          1           0       -0.380285    2.535487   -1.113108
     10          1           0       -1.630381    4.701042   -1.114734
     11          1           0       -4.130971    4.700991   -1.115552
     12          1           0       -5.381317    2.535962   -1.114616
 ---------------------------------------------------------------------
                    Distance matrix (angstroms):
                    1          2          3          4          5
     1  C    0.000000
     2  C    1.408697   0.000000
     3  C    2.439831   1.408396   0.000000
     4  C    2.817225   2.439590   1.408690   0.000000
     5  C    2.439579   2.816848   2.439657   1.408480   0.000000
     6  C    1.408460   2.439654   2.817265   2.439835   1.408614
     7  H    1.091885   2.171334   3.429089   3.909110   3.429008
     8  H    2.171215   1.091909   2.171125   3.429012   3.908757
     9  H    3.429181   2.171134   1.091881   2.171358   3.429009
    10  H    3.909106   3.428876   2.171266   1.091880   2.171304
    11  H    3.428867   3.908754   3.429051   2.171166   1.091906
    12  H    2.171318   3.429147   3.909151   3.429051   2.171172
                    6          7          8          9         10
     6  C    0.000000
     7  H    2.171225   0.000000
     8  H    3.428918   2.500320   0.000000
     9  H    3.909146   4.330938   2.500410   0.000000
    10  H    3.429230   5.000990   4.330819   2.500473   0.000000
    11  H    2.171166   4.330819   5.000663   4.330942   2.500590
    12  H    1.091886   2.500749   4.330951   5.001032   4.330946
                   11         12
    11  H    0.000000
    12  H    2.500143   0.000000
 Stoichiometry    C6H6
 Framework group  C1[X(C6H6)]
 Deg. of freedom    30
 Full point group                 C1      NOp   1
 Largest Abelian subgroup         C1      NOp   1
 Largest concise Abelian subgroup C1      NOp   1
                         Standard orientation:                         
 ---------------------------------------------------------------------
 Center     Atomic      Atomic             Coordinates (Angstroms)
 Number     Number       Type             X           Y           Z
 ---------------------------------------------------------------------
      1          6           0        1.061681   -0.925751    0.000000
      2          6           0       -0.271052   -1.382097   -0.000066
      3          6           0       -1.332604   -0.456523    0.000066
      4          6           0       -1.061600    0.925854   -0.000007
      5          6           0        0.270931    1.382118   -0.000059
      6          6           0        1.332645    0.456399    0.000052
      7          1           0        1.884487   -1.643527    0.000063
      8          1           0       -0.480955   -2.453640   -0.000104
      9          1           0       -2.365558   -0.810375    0.000122
     10          1           0       -1.884594    1.643407   -0.000034
     11          1           0        0.481103    2.453607   -0.000009
     12          1           0        2.365511    0.810523    0.000046
 ---------------------------------------------------------------------
 Rotational constants (GHZ):      5.5954635      5.5943257      2.7974473
 Standard basis: 3-21G (6D, 7F)
 There are    66 symmetry adapted basis functions of A   symmetry.
 Integral buffers will be    131072 words long.
 Raffenetti 2 integral format.
 Two-electron integral symmetry is turned on.
    66 basis functions,   108 primitive gaussians,    66 cartesian basis functions
    21 alpha electrons       21 beta electrons
       nuclear repulsion energy       201.5869614028 Hartrees.
 NAtoms=   12 NActive=   12 NUniq=   12 SFac= 7.50D-01 NAtFMM=   80 NAOKFM=F Big=F
 One-electron integrals computed using PRISM.
 NBasis=    66 RedAO= T  NBF=    66
 NBsUse=    66 1.00D-06 NBFU=    66
 Initial guess read from the read-write file.
 B after Tr=     0.000000    0.000000    0.000000
         Rot=    1.000000    0.000000    0.000000    0.000000 Ang=   0.00 deg.
 Initial guess orbital symmetries:
       Occupied  (A) (A) (A) (A) (A) (A) (A) (A) (A) (A) (A) (A)
                 (A) (A) (A) (A) (A) (A) (A) (A) (A)
       Virtual   (A) (A) (A) (A) (A) (A) (A) (A) (A) (A) (A) (A)
                 (A) (A) (A) (A) (A) (A) (A) (A) (A) (A) (A) (A)
                 (A) (A) (A) (A) (A) (A) (A) (A) (A) (A) (A) (A)
                 (A) (A) (A) (A) (A) (A) (A) (A) (A)
 Harris functional with IExCor=  402 diagonalized for initial guess.
 ExpMin= 1.83D-01 ExpMax= 1.72D+02 ExpMxC= 1.72D+02 IAcc=1 IRadAn=         1 AccDes= 0.00D+00
 HarFok:  IExCor=  402 AccDes= 0.00D+00 IRadAn=         1 IDoV= 1
 ScaDFX=  1.000000  1.000000  1.000000  1.000000
 FoFCou: FMM=F IPFlag=           0 FMFlag=      100000 FMFlg1=           0
         NFxFlg=           0 DoJE=T BraDBF=F KetDBF=T FulRan=T
         Omega=  0.000000  0.000000  1.000000  0.000000  0.000000 ICntrl=     500 IOpCl=  0
         NMat0=    1 NMatS0=    1 NMatT0=    0 NMatD0=    1 NMtDS0=    0 NMtDT0=    0
         I1Cent=           4 NGrid=           0.
 Petite list used in FoFCou.
 Requested convergence on RMS density matrix=1.00D-08 within 128 cycles.
 Requested convergence on MAX density matrix=1.00D-06.
 Requested convergence on             energy=1.00D-06.
 No special actions if energy rises.
 Keep J ints in memory in canonical form, NReq=3461236.
 Integral accuracy reduced to 1.0D-05 until final iterations.
 Initial convergence to 1.0D-05 achieved.  Increase integral accuracy.
 SCF Done:  E(RB-LYP) =  -230.858892082     A.U. after   13 cycles
             Convg  =    0.6624D-08             -V/T =  2.0092
 Calling FoFJK, ICntrl=      2527 FMM=F ISym2X=0 I1Cent= 0 IOpClX= 0 NMat=1 NMatS=1 NMatT=0.
 ***** Axes restored to original set *****
 -------------------------------------------------------------------
 Center     Atomic                   Forces (Hartrees/Bohr)
 Number     Number              X              Y              Z
 -------------------------------------------------------------------
      1        6           0.000343152    0.000167891   -0.000000828
      2        6          -0.000211256    0.000084895   -0.000014795
      3        6          -0.000271423    0.000127972    0.000014943
      4        6          -0.000188614   -0.000269259   -0.000000774
      5        6           0.000062003   -0.000170423   -0.000014427
      6        6           0.000264954    0.000055990    0.000012931
      7        1           0.000134386    0.000246404    0.000003329
      8        1          -0.000139842    0.000253792   -0.000000950
      9        1          -0.000274407    0.000005803    0.000000947
     10        1          -0.000150120   -0.000234508   -0.000002160
     11        1           0.000153514   -0.000243813    0.000005125
     12        1           0.000277652   -0.000024745   -0.000003341
 -------------------------------------------------------------------
 Cartesian Forces:  Max     0.000343152 RMS     0.000164934

 GradGradGradGradGradGradGradGradGradGradGradGradGradGradGradGradGradGrad
 Berny optimization.
 Using GEDIIS/GDIIS optimizer.
 Internal  Forces:  Max     0.000663086 RMS     0.000204954
 Search for a local minimum.
 Step number   2 out of a maximum of   64
 All quantities printed in internal units (Hartrees-Bohrs-Radians)
 Mixed Optimization -- En-DIIS/RFO-DIIS
 Update second derivatives using D2CorX and points    1    2
 DE= -1.11D-03 DEPred=-1.14D-03 R= 9.73D-01
 SS=  1.41D+00  RLast= 7.23D-02 DXNew= 5.0454D-01 2.1701D-01
 Trust test= 9.73D-01 RLast= 7.23D-02 DXMaxT set to 3.00D-01
 Use linear search instead of GDIIS.
     Eigenvalues ---    0.02152   0.02153   0.02154   0.02155   0.02155
     Eigenvalues ---    0.02155   0.02156   0.02156   0.02157   0.16000
     Eigenvalues ---    0.16000   0.16000   0.16000   0.16000   0.16000
     Eigenvalues ---    0.22000   0.22000   0.22000   0.32892   0.33711
     Eigenvalues ---    0.33718   0.33719   0.33723   0.33726   0.42176
     Eigenvalues ---    0.42191   0.46439   0.46451   0.46465   0.49109
     Eigenvalues --- 1000.000001000.000001000.000001000.000001000.00000
     Eigenvalues --- 1000.000001000.000001000.000001000.000001000.00000
     Eigenvalues --- 1000.000001000.000001000.000001000.000001000.00000
     Eigenvalues --- 1000.000001000.000001000.000001000.000001000.00000
     Eigenvalues --- 1000.000001000.000001000.000001000.00000
 RFO step:  Lambda=-3.68984251D-06 EMin= 2.15190080D-02
 Quartic linear search produced a step of -0.02451.
 Iteration  1 RMS(Cart)=  0.00075238 RMS(Int)=  0.00000005
 Iteration  2 RMS(Cart)=  0.00000006 RMS(Int)=  0.00000001
 Variable       Old X    -DE/DX   Delta X   Delta X   Delta X     New X
                                 (Linear)    (Quad)   (Total)
    R1        2.66205  -0.00066  -0.00063  -0.00072  -0.00134   2.66071
    R2        2.66160  -0.00044  -0.00063  -0.00024  -0.00087   2.66073
    R3        2.06336  -0.00028   0.00036  -0.00120  -0.00084   2.06252
    R4        2.66148  -0.00046  -0.00063  -0.00028  -0.00092   2.66057
    R5        2.06341  -0.00029   0.00036  -0.00123  -0.00087   2.06254
    R6        2.66204  -0.00054  -0.00061  -0.00047  -0.00108   2.66096
    R7        2.06336  -0.00027   0.00036  -0.00119  -0.00083   2.06253
    R8        2.66164  -0.00057  -0.00063  -0.00052  -0.00115   2.66049
    R9        2.06335  -0.00028   0.00036  -0.00120  -0.00084   2.06252
   R10        2.66190  -0.00055  -0.00062  -0.00049  -0.00111   2.66079
   R11        2.06340  -0.00029   0.00036  -0.00123  -0.00086   2.06254
   R12        2.06337  -0.00028   0.00036  -0.00119  -0.00083   2.06253
    A1        2.09429   0.00004   0.00000   0.00016   0.00016   2.09445
    A2        2.09436   0.00001   0.00000   0.00008   0.00008   2.09444
    A3        2.09453  -0.00004   0.00000  -0.00024  -0.00024   2.09430
    A4        2.09462  -0.00007   0.00000  -0.00029  -0.00030   2.09432
    A5        2.09414   0.00002   0.00000   0.00007   0.00007   2.09420
    A6        2.09443   0.00005   0.00000   0.00022   0.00023   2.09466
    A7        2.09428   0.00003   0.00000   0.00013   0.00013   2.09442
    A8        2.09448  -0.00003   0.00000  -0.00015  -0.00015   2.09434
    A9        2.09442   0.00000   0.00000   0.00002   0.00001   2.09443
   A10        2.09428   0.00004   0.00000   0.00017   0.00017   2.09445
   A11        2.09427  -0.00003   0.00000  -0.00012  -0.00012   2.09415
   A12        2.09464  -0.00001   0.00000  -0.00005  -0.00005   2.09459
   A13        2.09462  -0.00007   0.00000  -0.00030  -0.00030   2.09432
   A14        2.09438   0.00000   0.00001  -0.00004  -0.00004   2.09434
   A15        2.09418   0.00006   0.00000   0.00034   0.00034   2.09452
   A16        2.09428   0.00003   0.00000   0.00013   0.00014   2.09442
   A17        2.09468  -0.00002   0.00000  -0.00010  -0.00011   2.09458
   A18        2.09422  -0.00001   0.00000  -0.00003  -0.00003   2.09419
    D1       -0.00012   0.00000   0.00002   0.00014   0.00016   0.00004
    D2       -3.14159   0.00000  -0.00002   0.00001  -0.00001   3.14158
    D3        3.14142   0.00000   0.00002   0.00018   0.00020  -3.14157
    D4       -0.00005   0.00000  -0.00002   0.00005   0.00003  -0.00002
    D5       -0.00008   0.00000   0.00001   0.00008   0.00009   0.00001
    D6       -3.14153   0.00000  -0.00001  -0.00006  -0.00007   3.14159
    D7        3.14157   0.00000   0.00001   0.00004   0.00005  -3.14157
    D8        0.00012   0.00000  -0.00001  -0.00010  -0.00011   0.00001
    D9        0.00022  -0.00001  -0.00003  -0.00026  -0.00028  -0.00006
   D10       -3.14148   0.00000  -0.00002  -0.00010  -0.00012   3.14158
   D11       -3.14149   0.00000   0.00001  -0.00012  -0.00012   3.14158
   D12       -0.00001   0.00000   0.00002   0.00003   0.00005   0.00004
   D13       -0.00013   0.00000   0.00002   0.00015   0.00016   0.00004
   D14        3.14146   0.00000   0.00000   0.00016   0.00016  -3.14157
   D15        3.14158   0.00000   0.00001   0.00000   0.00000   3.14158
   D16       -0.00003   0.00000  -0.00001   0.00001   0.00000  -0.00003
   D17       -0.00007   0.00000   0.00001   0.00007   0.00008   0.00001
   D18       -3.14148   0.00000   0.00000  -0.00012  -0.00013   3.14158
   D19        3.14153   0.00000   0.00002   0.00007   0.00009  -3.14157
   D20        0.00012   0.00000   0.00001  -0.00013  -0.00012   0.00000
   D21        0.00018   0.00000  -0.00002  -0.00019  -0.00021  -0.00003
   D22       -3.14156   0.00000  -0.00001  -0.00005  -0.00005   3.14157
   D23        3.14158   0.00000  -0.00001   0.00001   0.00000   3.14158
   D24       -0.00015   0.00000   0.00000   0.00015   0.00016   0.00000
         Item               Value     Threshold  Converged?
 Maximum Force            0.000663     0.000450     NO 
 RMS     Force            0.000205     0.000300     YES
 Maximum Displacement     0.002109     0.001800     NO 
 RMS     Displacement     0.000752     0.001200     YES
 Predicted change in Energy=-2.556693D-06
 GradGradGradGradGradGradGradGradGradGradGradGradGradGradGradGradGradGrad

                          Input orientation:                          
 ---------------------------------------------------------------------
 Center     Atomic      Atomic             Coordinates (Angstroms)
 Number     Number       Type             X           Y           Z
 ---------------------------------------------------------------------
      1          6           0       -3.584749    1.316312   -1.113225
      2          6           0       -2.176762    1.316249   -1.112795
      3          6           0       -1.472841    2.535556   -1.113316
      4          6           0       -2.176908    3.755016   -1.114344
      5          6           0       -3.584778    3.755078   -1.114801
      6          6           0       -4.288756    2.535670   -1.114222
      7          1           0       -4.130556    0.371149   -1.112799
      8          1           0       -1.631260    0.370898   -1.112014
      9          1           0       -0.381397    2.535523   -1.112974
     10          1           0       -1.630962    4.700098   -1.114770
     11          1           0       -4.130413    4.700352   -1.115585
     12          1           0       -5.380201    2.535862   -1.114560
 ---------------------------------------------------------------------
                    Distance matrix (angstroms):
                    1          2          3          4          5
     1  C    0.000000
     2  C    1.407987   0.000000
     3  C    2.438587   1.407911   0.000000
     4  C    2.815901   2.438768   1.408117   0.000000
     5  C    2.438766   2.816097   2.438753   1.407871   0.000000
     6  C    1.407999   2.438752   2.815915   2.438587   1.408027
     7  H    1.091439   2.170375   3.427551   3.907340   3.427660
     8  H    2.170236   1.091449   2.170448   3.427827   3.907546
     9  H    3.427527   2.170246   1.091445   2.170490   3.427677
    10  H    3.907339   3.427585   2.170311   1.091438   2.170360
    11  H    3.427752   3.907546   3.427686   2.170217   1.091449
    12  H    2.170473   3.427752   3.907360   3.427452   2.170260
                    6          7          8          9         10
     6  C    0.000000
     7  H    2.170295   0.000000
     8  H    3.427612   2.499296   0.000000
     9  H    3.907360   4.329054   2.499553   0.000000
    10  H    3.427626   4.998777   4.329201   2.499360   0.000000
    11  H    2.170466   4.329204   4.998995   4.329158   2.499451
    12  H    1.091445   2.499519   4.329160   4.998804   4.329054
                   11         12
    11  H    0.000000
    12  H    2.499397   0.000000
 Stoichiometry    C6H6
 Framework group  C1[X(C6H6)]
 Deg. of freedom    30
 Full point group                 C1      NOp   1
 Largest Abelian subgroup         C1      NOp   1
 Largest concise Abelian subgroup C1      NOp   1
                         Standard orientation:                         
 ---------------------------------------------------------------------
 Center     Atomic      Atomic             Coordinates (Angstroms)
 Number     Number       Type             X           Y           Z
 ---------------------------------------------------------------------
      1          6           0       -0.772400    1.177167    0.000002
      2          6           0       -1.405756   -0.080326   -0.000017
      3          6           0       -0.633368   -1.257454    0.000018
      4          6           0        0.772457   -1.177130   -0.000003
      5          6           0        1.405759    0.080259   -0.000012
      6          6           0        0.633307    1.257484    0.000011
      7          1           0       -1.371058    2.089772   -0.000003
      8          1           0       -2.495442   -0.142322   -0.000015
      9          1           0       -1.124318   -2.232246    0.000012
     10          1           0        1.370981   -2.089822    0.000001
     11          1           0        2.495437    0.142409   -0.000016
     12          1           0        1.124400    2.232204    0.000021
 ---------------------------------------------------------------------
 Rotational constants (GHZ):      5.5999023      5.5989723      2.7997186
 Standard basis: 3-21G (6D, 7F)
 There are    66 symmetry adapted basis functions of A   symmetry.
 Integral buffers will be    131072 words long.
 Raffenetti 2 integral format.
 Two-electron integral symmetry is turned on.
    66 basis functions,   108 primitive gaussians,    66 cartesian basis functions
    21 alpha electrons       21 beta electrons
       nuclear repulsion energy       201.6688339607 Hartrees.
 NAtoms=   12 NActive=   12 NUniq=   12 SFac= 7.50D-01 NAtFMM=   80 NAOKFM=F Big=F
 One-electron integrals computed using PRISM.
 NBasis=    66 RedAO= T  NBF=    66
 NBsUse=    66 1.00D-06 NBFU=    66
 Initial guess read from the read-write file.
 B after Tr=     0.000000    0.000000    0.000000
         Rot=    1.000000    0.000000    0.000000    0.000000 Ang=   0.00 deg.
 Initial guess orbital symmetries:
       Occupied  (A) (A) (A) (A) (A) (A) (A) (A) (A) (A) (A) (A)
                 (A) (A) (A) (A) (A) (A) (A) (A) (A)
       Virtual   (A) (A) (A) (A) (A) (A) (A) (A) (A) (A) (A) (A)
                 (A) (A) (A) (A) (A) (A) (A) (A) (A) (A) (A) (A)
                 (A) (A) (A) (A) (A) (A) (A) (A) (A) (A) (A) (A)
                 (A) (A) (A) (A) (A) (A) (A) (A) (A)
 Requested convergence on RMS density matrix=1.00D-08 within 128 cycles.
 Requested convergence on MAX density matrix=1.00D-06.
 Requested convergence on             energy=1.00D-06.
 No special actions if energy rises.
 Keep J ints in memory in canonical form, NReq=3461236.
 SCF Done:  E(RB-LYP) =  -230.858902609     A.U. after   12 cycles
             Convg  =    0.9257D-08             -V/T =  2.0092
 Calling FoFJK, ICntrl=      2527 FMM=F ISym2X=0 I1Cent= 0 IOpClX= 0 NMat=1 NMatS=1 NMatT=0.
 ***** Axes restored to original set *****
 -------------------------------------------------------------------
 Center     Atomic                   Forces (Hartrees/Bohr)
 Number     Number              X              Y              Z
 -------------------------------------------------------------------
      1        6          -0.000094177    0.000048851   -0.000001683
      2        6          -0.000062368    0.000006574    0.000004952
      3        6          -0.000083443    0.000077313   -0.000005540
      4        6           0.000177141   -0.000098616    0.000001906
      5        6          -0.000019071   -0.000053042    0.000001946
      6        6           0.000082306    0.000018639   -0.000001523
      7        1          -0.000002644   -0.000026234    0.000000296
      8        1           0.000031092    0.000001331   -0.000000617
      9        1           0.000017410    0.000008149    0.000000843
     10        1          -0.000006507    0.000032146   -0.000000304
     11        1          -0.000022444    0.000003723   -0.000000272
     12        1          -0.000017295   -0.000018835   -0.000000004
 -------------------------------------------------------------------
 Cartesian Forces:  Max     0.000177141 RMS     0.000048270

 GradGradGradGradGradGradGradGradGradGradGradGradGradGradGradGradGradGrad
 Berny optimization.
 Using GEDIIS/GDIIS optimizer.
 Internal  Forces:  Max     0.000123716 RMS     0.000028418
 Search for a local minimum.
 Step number   3 out of a maximum of   64
 All quantities printed in internal units (Hartrees-Bohrs-Radians)
 Mixed Optimization -- En-DIIS/RFO-DIIS
 Swaping is turned off.
 Update second derivatives using D2CorX and points    1    2    3
 DE= -1.05D-05 DEPred=-2.56D-06 R= 4.12D+00
 SS=  1.41D+00  RLast= 3.51D-03 DXNew= 5.0454D-01 1.0539D-02
 Trust test= 4.12D+00 RLast= 3.51D-03 DXMaxT set to 3.00D-01
     Eigenvalues ---    0.02152   0.02153   0.02154   0.02155   0.02155
     Eigenvalues ---    0.02155   0.02156   0.02156   0.02157   0.15944
     Eigenvalues ---    0.16000   0.16000   0.16000   0.16000   0.16104
     Eigenvalues ---    0.21889   0.22000   0.22288   0.33601   0.33713
     Eigenvalues ---    0.33718   0.33721   0.33725   0.33901   0.42169
     Eigenvalues ---    0.42189   0.43421   0.46460   0.46465   0.51281
     Eigenvalues --- 1000.000001000.000001000.000001000.000001000.00000
     Eigenvalues --- 1000.000001000.000001000.000001000.000001000.00000
     Eigenvalues --- 1000.000001000.000001000.000001000.000001000.00000
     Eigenvalues --- 1000.000001000.000001000.000001000.000001000.00000
     Eigenvalues --- 1000.000001000.000001000.000001000.00000
 En-DIIS/RFO-DIIS IScMMF=        0 using points:     3    2
 RFO step:  Lambda=-7.68176508D-08.
 DIIS coeffs:      0.99050      0.00950
 Iteration  1 RMS(Cart)=  0.00011541 RMS(Int)=  0.00000001
 Iteration  2 RMS(Cart)=  0.00000001 RMS(Int)=  0.00000000
 Variable       Old X    -DE/DX   Delta X   Delta X   Delta X     New X
                                  (DIIS)     (GDIIS)  (Total)
    R1        2.66071   0.00001   0.00001  -0.00002  -0.00001   2.66070
    R2        2.66073  -0.00007   0.00001  -0.00019  -0.00018   2.66055
    R3        2.06252   0.00002   0.00001   0.00004   0.00005   2.06257
    R4        2.66057   0.00003   0.00001   0.00002   0.00003   2.66060
    R5        2.06254   0.00001   0.00001   0.00001   0.00002   2.06256
    R6        2.66096  -0.00012   0.00001  -0.00030  -0.00029   2.66066
    R7        2.06253   0.00002   0.00001   0.00002   0.00003   2.06256
    R8        2.66049   0.00006   0.00001   0.00009   0.00010   2.66059
    R9        2.06252   0.00002   0.00001   0.00004   0.00005   2.06257
   R10        2.66079  -0.00002   0.00001  -0.00009  -0.00007   2.66071
   R11        2.06254   0.00001   0.00001   0.00001   0.00002   2.06256
   R12        2.06253   0.00002   0.00001   0.00002   0.00003   2.06256
    A1        2.09445  -0.00004   0.00000  -0.00019  -0.00019   2.09426
    A2        2.09444   0.00000   0.00000   0.00000   0.00000   2.09444
    A3        2.09430   0.00004   0.00000   0.00019   0.00019   2.09449
    A4        2.09432   0.00003   0.00000   0.00012   0.00012   2.09445
    A5        2.09420   0.00002   0.00000   0.00015   0.00014   2.09435
    A6        2.09466  -0.00005   0.00000  -0.00027  -0.00027   2.09439
    A7        2.09442   0.00001   0.00000   0.00007   0.00006   2.09448
    A8        2.09434   0.00001   0.00000   0.00005   0.00005   2.09439
    A9        2.09443  -0.00002   0.00000  -0.00011  -0.00011   2.09432
   A10        2.09445  -0.00004   0.00000  -0.00018  -0.00019   2.09426
   A11        2.09415   0.00005   0.00000   0.00026   0.00026   2.09441
   A12        2.09459  -0.00001   0.00000  -0.00008  -0.00008   2.09451
   A13        2.09432   0.00003   0.00000   0.00012   0.00012   2.09444
   A14        2.09434   0.00001   0.00000   0.00008   0.00008   2.09442
   A15        2.09452  -0.00004   0.00000  -0.00020  -0.00020   2.09432
   A16        2.09442   0.00001   0.00000   0.00006   0.00006   2.09448
   A17        2.09458  -0.00003   0.00000  -0.00019  -0.00019   2.09439
   A18        2.09419   0.00002   0.00000   0.00012   0.00012   2.09431
    D1        0.00004   0.00000   0.00000  -0.00004  -0.00004  -0.00001
    D2        3.14158   0.00000   0.00000   0.00001   0.00001   3.14159
    D3       -3.14157   0.00000   0.00000  -0.00003  -0.00003   3.14159
    D4       -0.00002   0.00000   0.00000   0.00003   0.00002   0.00000
    D5        0.00001   0.00000   0.00000  -0.00001  -0.00001   0.00000
    D6        3.14159   0.00000   0.00000   0.00001   0.00001  -3.14159
    D7       -3.14157   0.00000   0.00000  -0.00003  -0.00003   3.14159
    D8        0.00001   0.00000   0.00000  -0.00001  -0.00001   0.00000
    D9       -0.00006   0.00000   0.00000   0.00007   0.00007   0.00001
   D10        3.14158   0.00000   0.00000   0.00001   0.00001  -3.14159
   D11        3.14158   0.00000   0.00000   0.00002   0.00002  -3.14159
   D12        0.00004   0.00000   0.00000  -0.00004  -0.00004   0.00000
   D13        0.00004   0.00000   0.00000  -0.00005  -0.00005  -0.00001
   D14       -3.14157   0.00000   0.00000  -0.00003  -0.00003   3.14159
   D15        3.14158   0.00000   0.00000   0.00001   0.00001  -3.14159
   D16       -0.00003   0.00000   0.00000   0.00003   0.00003   0.00000
   D17        0.00001   0.00000   0.00000  -0.00001  -0.00001   0.00000
   D18        3.14158   0.00000   0.00000   0.00002   0.00002  -3.14159
   D19       -3.14157   0.00000   0.00000  -0.00003  -0.00003   3.14159
   D20        0.00000   0.00000   0.00000   0.00000   0.00000   0.00000
   D21       -0.00003   0.00000   0.00000   0.00004   0.00004   0.00000
   D22        3.14157   0.00000   0.00000   0.00002   0.00002   3.14159
   D23        3.14158   0.00000   0.00000   0.00001   0.00001  -3.14159
   D24        0.00000   0.00000   0.00000  -0.00001  -0.00001   0.00000
         Item               Value     Threshold  Converged?
 Maximum Force            0.000124     0.000450     YES
 RMS     Force            0.000028     0.000300     YES
 Maximum Displacement     0.000332     0.001800     YES
 RMS     Displacement     0.000115     0.001200     YES
 Predicted change in Energy=-7.123986D-08
 Optimization completed.
    -- Stationary point found.
                           ----------------------------
                           !   Optimized Parameters   !
                           ! (Angstroms and Degrees)  !
 --------------------------                            --------------------------
 ! Name  Definition              Value          Derivative Info.                !
 --------------------------------------------------------------------------------
 ! R1    R(1,2)                  1.408          -DE/DX =    0.0                 !
 ! R2    R(1,6)                  1.408          -DE/DX =   -0.0001              !
 ! R3    R(1,7)                  1.0914         -DE/DX =    0.0                 !
 ! R4    R(2,3)                  1.4079         -DE/DX =    0.0                 !
 ! R5    R(2,8)                  1.0914         -DE/DX =    0.0                 !
 ! R6    R(3,4)                  1.4081         -DE/DX =   -0.0001              !
 ! R7    R(3,9)                  1.0914         -DE/DX =    0.0                 !
 ! R8    R(4,5)                  1.4079         -DE/DX =    0.0001              !
 ! R9    R(4,10)                 1.0914         -DE/DX =    0.0                 !
 ! R10   R(5,6)                  1.408          -DE/DX =    0.0                 !
 ! R11   R(5,11)                 1.0914         -DE/DX =    0.0                 !
 ! R12   R(6,12)                 1.0914         -DE/DX =    0.0                 !
 ! A1    A(2,1,6)              120.003          -DE/DX =    0.0                 !
 ! A2    A(2,1,7)              120.0028         -DE/DX =    0.0                 !
 ! A3    A(6,1,7)              119.9943         -DE/DX =    0.0                 !
 ! A4    A(1,2,3)              119.9958         -DE/DX =    0.0                 !
 ! A5    A(1,2,8)              119.9891         -DE/DX =    0.0                 !
 ! A6    A(3,2,8)              120.0152         -DE/DX =    0.0                 !
 ! A7    A(2,3,4)              120.0013         -DE/DX =    0.0                 !
 ! A8    A(2,3,9)              119.9966         -DE/DX =    0.0                 !
 ! A9    A(4,3,9)              120.0021         -DE/DX =    0.0                 !
 ! A10   A(3,4,5)              120.0029         -DE/DX =    0.0                 !
 ! A11   A(3,4,10)             119.9859         -DE/DX =    0.0                 !
 ! A12   A(5,4,10)             120.0112         -DE/DX =    0.0                 !
 ! A13   A(4,5,6)              119.9958         -DE/DX =    0.0                 !
 ! A14   A(4,5,11)             119.9971         -DE/DX =    0.0                 !
 ! A15   A(6,5,11)             120.0071         -DE/DX =    0.0                 !
 ! A16   A(1,6,5)              120.0013         -DE/DX =    0.0                 !
 ! A17   A(1,6,12)             120.0104         -DE/DX =    0.0                 !
 ! A18   A(5,6,12)             119.9882         -DE/DX =    0.0                 !
 ! D1    D(6,1,2,3)              0.0021         -DE/DX =    0.0                 !
 ! D2    D(6,1,2,8)            179.9995         -DE/DX =    0.0                 !
 ! D3    D(7,1,2,3)            180.0013         -DE/DX =    0.0                 !
 ! D4    D(7,1,2,8)             -0.0013         -DE/DX =    0.0                 !
 ! D5    D(2,1,6,5)              0.0006         -DE/DX =    0.0                 !
 ! D6    D(2,1,6,12)          -180.0003         -DE/DX =    0.0                 !
 ! D7    D(7,1,6,5)            180.0014         -DE/DX =    0.0                 !
 ! D8    D(7,1,6,12)             0.0005         -DE/DX =    0.0                 !
 ! D9    D(1,2,3,4)             -0.0036         -DE/DX =    0.0                 !
 ! D10   D(1,2,3,9)           -180.0005         -DE/DX =    0.0                 !
 ! D11   D(8,2,3,4)           -180.0009         -DE/DX =    0.0                 !
 ! D12   D(8,2,3,9)              0.0021         -DE/DX =    0.0                 !
 ! D13   D(2,3,4,5)              0.0023         -DE/DX =    0.0                 !
 ! D14   D(2,3,4,10)           180.0014         -DE/DX =    0.0                 !
 ! D15   D(9,3,4,5)           -180.0008         -DE/DX =    0.0                 !
 ! D16   D(9,3,4,10)            -0.0017         -DE/DX =    0.0                 !
 ! D17   D(3,4,5,6)              0.0005         -DE/DX =    0.0                 !
 ! D18   D(3,4,5,11)          -180.0008         -DE/DX =    0.0                 !
 ! D19   D(10,4,5,6)           180.0014         -DE/DX =    0.0                 !
 ! D20   D(10,4,5,11)            0.0001         -DE/DX =    0.0                 !
 ! D21   D(4,5,6,1)             -0.0019         -DE/DX =    0.0                 !
 ! D22   D(4,5,6,12)           179.999          -DE/DX =    0.0                 !
 ! D23   D(11,5,6,1)          -180.0007         -DE/DX =    0.0                 !
 ! D24   D(11,5,6,12)            0.0002         -DE/DX =    0.0                 !
 --------------------------------------------------------------------------------
 GradGradGradGradGradGradGradGradGradGradGradGradGradGradGradGradGradGrad

                          Input orientation:                          
 ---------------------------------------------------------------------
 Center     Atomic      Atomic             Coordinates (Angstroms)
 Number     Number       Type             X           Y           Z
 ---------------------------------------------------------------------
      1          6           0       -3.584749    1.316312   -1.113225
      2          6           0       -2.176762    1.316249   -1.112795
      3          6           0       -1.472841    2.535556   -1.113316
      4          6           0       -2.176908    3.755016   -1.114344
      5          6           0       -3.584778    3.755078   -1.114801
      6          6           0       -4.288756    2.535670   -1.114222
      7          1           0       -4.130556    0.371149   -1.112799
      8          1           0       -1.631260    0.370898   -1.112014
      9          1           0       -0.381397    2.535523   -1.112974
     10          1           0       -1.630962    4.700098   -1.114770
     11          1           0       -4.130413    4.700352   -1.115585
     12          1           0       -5.380201    2.535862   -1.114560
 ---------------------------------------------------------------------
                    Distance matrix (angstroms):
                    1          2          3          4          5
     1  C    0.000000
     2  C    1.407987   0.000000
     3  C    2.438587   1.407911   0.000000
     4  C    2.815901   2.438768   1.408117   0.000000
     5  C    2.438766   2.816097   2.438753   1.407871   0.000000
     6  C    1.407999   2.438752   2.815915   2.438587   1.408027
     7  H    1.091439   2.170375   3.427551   3.907340   3.427660
     8  H    2.170236   1.091449   2.170448   3.427827   3.907546
     9  H    3.427527   2.170246   1.091445   2.170490   3.427677
    10  H    3.907339   3.427585   2.170311   1.091438   2.170360
    11  H    3.427752   3.907546   3.427686   2.170217   1.091449
    12  H    2.170473   3.427752   3.907360   3.427452   2.170260
                    6          7          8          9         10
     6  C    0.000000
     7  H    2.170295   0.000000
     8  H    3.427612   2.499296   0.000000
     9  H    3.907360   4.329054   2.499553   0.000000
    10  H    3.427626   4.998777   4.329201   2.499360   0.000000
    11  H    2.170466   4.329204   4.998995   4.329158   2.499451
    12  H    1.091445   2.499519   4.329160   4.998804   4.329054
                   11         12
    11  H    0.000000
    12  H    2.499397   0.000000
 Stoichiometry    C6H6
 Framework group  C1[X(C6H6)]
 Deg. of freedom    30
 Full point group                 C1      NOp   1
 Largest Abelian subgroup         C1      NOp   1
 Largest concise Abelian subgroup C1      NOp   1
                         Standard orientation:                         
 ---------------------------------------------------------------------
 Center     Atomic      Atomic             Coordinates (Angstroms)
 Number     Number       Type             X           Y           Z
 ---------------------------------------------------------------------
      1          6           0       -0.772400    1.177167    0.000002
      2          6           0       -1.405756   -0.080326   -0.000017
      3          6           0       -0.633368   -1.257454    0.000018
      4          6           0        0.772457   -1.177130   -0.000003
      5          6           0        1.405759    0.080259   -0.000012
      6          6           0        0.633307    1.257484    0.000011
      7          1           0       -1.371058    2.089772   -0.000003
      8          1           0       -2.495442   -0.142322   -0.000015
      9          1           0       -1.124318   -2.232246    0.000012
     10          1           0        1.370981   -2.089822    0.000001
     11          1           0        2.495437    0.142409   -0.000016
     12          1           0        1.124400    2.232204    0.000021
 ---------------------------------------------------------------------
 Rotational constants (GHZ):      5.5999023      5.5989723      2.7997186

 **********************************************************************

            Population analysis using the SCF density.

 **********************************************************************

 Orbital symmetries:
       Occupied  (A) (A) (A) (A) (A) (A) (A) (A) (A) (A) (A) (A)
                 (A) (A) (A) (A) (A) (A) (A) (A) (A)
       Virtual   (A) (A) (A) (A) (A) (A) (A) (A) (A) (A) (A) (A)
                 (A) (A) (A) (A) (A) (A) (A) (A) (A) (A) (A) (A)
                 (A) (A) (A) (A) (A) (A) (A) (A) (A) (A) (A) (A)
                 (A) (A) (A) (A) (A) (A) (A) (A) (A)
 The electronic state is 1-A.
 Alpha  occ. eigenvalues --   -9.86376  -9.86301  -9.86300  -9.86164  -9.86164
 Alpha  occ. eigenvalues --   -9.86047  -0.76121  -0.66147  -0.66144  -0.53280
 Alpha  occ. eigenvalues --   -0.53278  -0.46246  -0.40164  -0.39141  -0.36843
 Alpha  occ. eigenvalues --   -0.36839  -0.31206  -0.29494  -0.29493  -0.21198
 Alpha  occ. eigenvalues --   -0.21194
 Alpha virt. eigenvalues --   -0.01752  -0.01750   0.08080   0.12402   0.13540
 Alpha virt. eigenvalues --    0.13542   0.17459   0.17461   0.17974   0.28858
 Alpha virt. eigenvalues --    0.28864   0.30106   0.30109   0.51681   0.52424
 Alpha virt. eigenvalues --    0.63777   0.64892   0.64953   0.68662   0.68668
 Alpha virt. eigenvalues --    0.73765   0.73768   0.74545   0.74550   0.78069
 Alpha virt. eigenvalues --    0.78070   0.83407   0.85576   0.90299   0.94652
 Alpha virt. eigenvalues --    0.94654   1.04455   1.05361   1.05363   1.25102
 Alpha virt. eigenvalues --    1.25109   1.27836   1.39565   1.41127   1.41131
 Alpha virt. eigenvalues --    1.49363   1.49378   1.83027   1.83028   2.40317
          Condensed to atoms (all electrons):
              1          2          3          4          5          6
     1  C    5.135851   0.444553  -0.070230  -0.028597  -0.070201   0.444598
     2  C    0.444553   5.135839   0.444567  -0.070201  -0.028587  -0.070198
     3  C   -0.070230   0.444567   5.135778   0.444557  -0.070198  -0.028609
     4  C   -0.028597  -0.070201   0.444557   5.135851   0.444594  -0.070230
     5  C   -0.070201  -0.028587  -0.070198   0.444594   5.135839   0.444526
     6  C    0.444598  -0.070198  -0.028609  -0.070230   0.444526   5.135777
     7  H    0.384033  -0.042575   0.004141  -0.000170   0.004140  -0.042588
     8  H   -0.042595   0.384032  -0.042568   0.004138  -0.000170   0.004141
     9  H    0.004141  -0.042601   0.384019  -0.042571   0.004139  -0.000170
    10  H   -0.000170   0.004140  -0.042589   0.384033  -0.042574   0.004140
    11  H    0.004138  -0.000170   0.004140  -0.042594   0.384032  -0.042569
    12  H   -0.042570   0.004138  -0.000170   0.004142  -0.042602   0.384019
              7          8          9         10         11         12
     1  C    0.384033  -0.042595   0.004141  -0.000170   0.004138  -0.042570
     2  C   -0.042575   0.384032  -0.042601   0.004140  -0.000170   0.004138
     3  C    0.004141  -0.042568   0.384019  -0.042589   0.004140  -0.000170
     4  C   -0.000170   0.004138  -0.042571   0.384033  -0.042594   0.004142
     5  C    0.004140  -0.000170   0.004139  -0.042574   0.384032  -0.042602
     6  C   -0.042588   0.004141  -0.000170   0.004140  -0.042569   0.384019
     7  H    0.538872  -0.004331  -0.000055   0.000002  -0.000054  -0.004329
     8  H   -0.004331   0.538875  -0.004328  -0.000054   0.000002  -0.000055
     9  H   -0.000055  -0.004328   0.538910  -0.004329  -0.000055   0.000002
    10  H    0.000002  -0.000054  -0.004329   0.538872  -0.004332  -0.000055
    11  H   -0.000054   0.000002  -0.000055  -0.004332   0.538875  -0.004328
    12  H   -0.004329  -0.000055   0.000002  -0.000055  -0.004328   0.538910
 Mulliken atomic charges:
              1
     1  C   -0.162951
     2  C   -0.162937
     3  C   -0.162838
     4  C   -0.162951
     5  C   -0.162937
     6  C   -0.162838
     7  H    0.162914
     8  H    0.162915
     9  H    0.162897
    10  H    0.162914
    11  H    0.162915
    12  H    0.162897
 Sum of Mulliken atomic charges =   0.00000
 Mulliken charges with hydrogens summed into heavy atoms:
              1
     1  C   -0.000037
     2  C   -0.000022
     3  C    0.000059
     4  C   -0.000037
     5  C   -0.000022
     6  C    0.000059
 Sum of Mulliken charges with hydrogens summed into heavy atoms =   0.00000
 Electronic spatial extent (au):  <R**2>=            464.9736
 Charge=              0.0000 electrons
 Dipole moment (field-independent basis, Debye):
    X=              0.0000    Y=              0.0000    Z=              0.0000  Tot=              0.0000
 Quadrupole moment (field-independent basis, Debye-Ang):
   XX=            -31.4097   YY=            -31.4109   ZZ=            -39.7555
   XY=             -0.0002   XZ=              0.0000   YZ=              0.0000
 Traceless Quadrupole moment (field-independent basis, Debye-Ang):
   XX=              2.7823   YY=              2.7811   ZZ=             -5.5635
   XY=             -0.0002   XZ=              0.0000   YZ=              0.0000
 Octapole moment (field-independent basis, Debye-Ang**2):
  XXX=             -0.0003  YYY=             -0.0016  ZZZ=              0.0000  XYY=              0.0003
  XXY=              0.0016  XXZ=             -0.0001  XZZ=              0.0000  YZZ=              0.0000
  YYZ=              0.0001  XYZ=              0.0000
 Hexadecapole moment (field-independent basis, Debye-Ang**3):
 XXXX=           -268.8136 YYYY=           -268.7858 ZZZZ=            -41.0920 XXXY=             -0.0014
 XXXZ=              0.0000 YYYX=             -0.0011 YYYZ=              0.0001 ZZZX=              0.0000
 ZZZY=              0.0000 XXYY=            -89.6010 XXZZ=            -61.8826 YYZZ=            -61.8755
 XXYZ=              0.0000 YYXZ=              0.0001 ZZXY=             -0.0001
 N-N= 2.016688339607D+02 E-N=-9.377049389741D+02  KE= 2.287608582071D+02
 1\1\GINC-YIPU-MIAOS-MACBOOK-PRO\FOpt\RBLYP\3-21G\C6H6\MIAO\01-Dec-2011
 \0\\# scf=tight blyp/3-21g opt geom=connectivity\\Title Card Required\
 \0,1\C,-3.5847486578,1.3163118989,-1.1132251455\C,-2.1767616867,1.3162
 486004,-1.1127951001\C,-1.4728412315,2.535555625,-1.1133162972\C,-2.17
 69076456,3.7550161951,-1.1143435964\C,-3.5847781833,3.7550777841,-1.11
 48012337\C,-4.2887559929,2.5356699789,-1.1142216944\H,-4.1305562805,0.
 3711490712,-1.1127991336\H,-1.6312603511,0.3708976317,-1.1120137984\H,
 -0.3813966903,2.5355231428,-1.1129740906\H,-1.6309616037,4.7000980246,
 -1.1147699477\H,-4.1304128937,4.7003517227,-1.1155845255\H,-5.38020074
 31,2.5358618046,-1.1145596369\\Version=EM64M-G09RevA.02\State=1-A\HF=-
 230.8589026\RMSD=9.257e-09\RMSF=4.827e-05\Dipole=0.0000008,0.0000005,0
 .0000005\Quadrupole=2.0677669,2.0685392,-4.1363062,-0.0002722,0.001967
 4,-0.0039687\PG=C01 [X(C6H6)]\\@


 THE TRULY SUCCESSFUL PERFORMANCE OF RESEARCHES IN
 INORGANIC CHEMISTRY IS POSSIBLE ONLY TO ONE WHO IS NOT
 ONLY A THEORETICAL CHEMIST, BUT ALSO AN ACCOMPLISHED
 ANALYST AND, MOREOVER, NOT MERELY A PRACTICALLY TRAINED,
 MECHANICAL WORKER, BUT A THINKING CREATIVE ARTIST.
   --  CLEMENS WINKLER, BER. 33, 1697(1900)
 Job cpu time:  0 days  0 hours  0 minutes 30.8 seconds.
 File lengths (MBytes):  RWF=      9 Int=      0 D2E=      0 Chk=      2 Scr=      1
 Normal termination of Gaussian 09 at Thu Dec  1 11:18:53 2011.
