 Entering Gaussian System, Link 0=g09
 Input=water16.gjf
 Output=water16.log
 Initial command:
 /Users/miao/Workspace/g09/l1.exe /Users/miao/Workspace/new_quick/example/water16/Gau-3018.inp -scrdir=/Users/miao/Workspace/new_quick/example/water16/
 Entering Link 1 = /Users/miao/Workspace/g09/l1.exe PID=      3019.
  
 Copyright (c) 1988,1990,1992,1993,1995,1998,2003,2009, Gaussian, Inc.
                  All Rights Reserved.
  
 This is part of the Gaussian(R) 09 program.  It is based on
 the Gaussian(R) 03 system (copyright 2003, Gaussian, Inc.),
 the Gaussian(R) 98 system (copyright 1998, Gaussian, Inc.),
 the Gaussian(R) 94 system (copyright 1995, Gaussian, Inc.),
 the Gaussian 92(TM) system (copyright 1992, Gaussian, Inc.),
 the Gaussian 90(TM) system (copyright 1990, Gaussian, Inc.),
 the Gaussian 88(TM) system (copyright 1988, Gaussian, Inc.),
 the Gaussian 86(TM) system (copyright 1986, Carnegie Mellon
 University), and the Gaussian 82(TM) system (copyright 1983,
 Carnegie Mellon University). Gaussian is a federally registered
 trademark of Gaussian, Inc.
  
 This software contains proprietary and confidential information,
 including trade secrets, belonging to Gaussian, Inc.
  
 This software is provided under written license and may be
 used, copied, transmitted, or stored only in accord with that
 written license.
  
 The following legend is applicable only to US Government
 contracts under FAR:
  
                    RESTRICTED RIGHTS LEGEND
  
 Use, reproduction and disclosure by the US Government is
 subject to restrictions as set forth in subparagraphs (a)
 and (c) of the Commercial Computer Software - Restricted
 Rights clause in FAR 52.227-19.
  
 Gaussian, Inc.
 340 Quinnipiac St., Bldg. 40, Wallingford CT 06492
  
  
 ---------------------------------------------------------------
 Warning -- This program may not be used in any manner that
 competes with the business of Gaussian, Inc. or will provide
 assistance to any competitor of Gaussian, Inc.  The licensee
 of this program is prohibited from giving any competitor of
 Gaussian, Inc. access to this program.  By using this program,
 the user acknowledges that Gaussian, Inc. is engaged in the
 business of creating and licensing software in the field of
 computational chemistry and represents and warrants to the
 licensee that it is not a competitor of Gaussian, Inc. and that
 it will not use this program in any manner prohibited above.
 ---------------------------------------------------------------
  

 Cite this work as:
 Gaussian 09, Revision A.02,
 M. J. Frisch, G. W. Trucks, H. B. Schlegel, G. E. Scuseria, 
 M. A. Robb, J. R. Cheeseman, G. Scalmani, V. Barone, B. Mennucci, 
 G. A. Petersson, H. Nakatsuji, M. Caricato, X. Li, H. P. Hratchian, 
 A. F. Izmaylov, J. Bloino, G. Zheng, J. L. Sonnenberg, M. Hada, 
 M. Ehara, K. Toyota, R. Fukuda, J. Hasegawa, M. Ishida, T. Nakajima, 
 Y. Honda, O. Kitao, H. Nakai, T. Vreven, J. A. Montgomery, Jr., 
 J. E. Peralta, F. Ogliaro, M. Bearpark, J. J. Heyd, E. Brothers, 
 K. N. Kudin, V. N. Staroverov, R. Kobayashi, J. Normand, 
 K. Raghavachari, A. Rendell, J. C. Burant, S. S. Iyengar, J. Tomasi, 
 M. Cossi, N. Rega, J. M. Millam, M. Klene, J. E. Knox, J. B. Cross, 
 V. Bakken, C. Adamo, J. Jaramillo, R. Gomperts, R. E. Stratmann, 
 O. Yazyev, A. J. Austin, R. Cammi, C. Pomelli, J. W. Ochterski, 
 R. L. Martin, K. Morokuma, V. G. Zakrzewski, G. A. Voth, 
 P. Salvador, J. J. Dannenberg, S. Dapprich, A. D. Daniels, 
 O. Farkas, J. B. Foresman, J. V. Ortiz, J. Cioslowski, 
 and D. J. Fox, Gaussian, Inc., Wallingford CT, 2009.
 
 ******************************************
 Gaussian 09:  EM64M-G09RevA.02 11-Jun-2009
                14-Oct-2011 
 ******************************************
 %chk=AB
 %mem=125MW
 %nproc=1
 Will use up to    1 processors via shared memory.
 -----------------------------------
 #hf/6-31g* geom=connectivity nosymm
 -----------------------------------
 1/38=1,57=2/1;
 2/12=2,15=1,17=6,18=5,40=1/2;
 3/5=1,6=6,7=1,11=9,16=1,25=1,30=1/1,2,3;
 4//1;
 5/5=2,38=5/2;
 6/7=2,8=2,9=2,10=2,28=1/1;
 99/5=1,9=1/99;
 ----------------------------------------------------------------
 Water16 modeled by HyperChem and optimized by amber94 force feld
 ----------------------------------------------------------------
 Symbolic Z-matrix:
 Charge =  0 Multiplicity = 1
 O                    -0.56428  -0.57339  -2.52729 
 O                    -3.55903  -1.84347  -2.14562 
 O                    -0.78063   0.54962   1.55968 
 O                    -2.35205  -2.18757   0.72179 
 O                    -2.78795   1.06515  -0.80101 
 O                    -0.74385   3.06647   3.69619 
 O                    -2.29861   3.52774   1.00714 
 O                     1.90007  -0.30397  -0.16401 
 O                     2.2878   -2.17861  -2.79388 
 O                     0.01715  -3.56495  -1.13064 
 O                     0.67264  -2.50063   1.90954 
 O                     3.70876   2.34434  -0.26313 
 O                     2.31906   0.88615  -3.21672 
 O                     0.33891   2.59354  -0.7537 
 O                     2.57209   3.99531  -2.72827 
 O                     1.88786   2.39052   2.22422 
 H                     1.53406   3.0011    2.87974 
 H                    -0.08086  -1.33586  -2.19211 
 H                     0.11906  -0.0635   -2.97305 
 H                    -3.97687  -2.37745  -2.82377 
 H                    -2.6618   -1.71876  -2.47404 
 H                    -1.53852  -0.01436   1.37055 
 H                    -0.95128   1.32283   1.0103 
 H                    -3.19669  -2.02667   0.2916 
 H                    -1.8897   -2.74345   0.08577 
 H                    -3.36308   0.3723   -1.13844 
 H                    -1.99543   0.9732   -1.34129 
 H                    -1.14279   2.22045   3.47902 
 H                    -1.26791   3.69249   3.18671 
 H                    -3.013     2.98891   0.65372 
 H                    -1.68621   3.58788   0.26819 
 H                     1.03415   0.11848  -0.14863 
 H                     1.85528  -0.91235   0.58131 
 H                     2.60437  -1.65084  -2.05461 
 H                     2.44432  -1.60561  -3.55001 
 H                     0.54817  -3.51719  -0.32972 
 H                     0.67023  -3.70953  -1.82309 
 H                    -0.17207  -2.03812   1.86063 
 H                     0.64313  -2.92886   2.76701 
 H                     3.6123    1.40626  -0.07095 
 H                     3.61979   2.74726   0.60691 
 H                     2.54962   1.07663  -2.30144 
 H                     2.41755   1.73966  -3.64925 
 H                     0.66737   2.95726  -1.5817 
 H                     1.07708   2.72184  -0.14815 
 H                     3.26042   3.80768  -2.08021 
 H                     2.7565    4.89555  -3.00366 
 H                     1.31614   1.62223   2.32172 
 
                          Input orientation:                          
 ---------------------------------------------------------------------
 Center     Atomic      Atomic             Coordinates (Angstroms)
 Number     Number       Type             X           Y           Z
 ---------------------------------------------------------------------
      1          8           0       -0.564282   -0.573389   -2.527290
      2          8           0       -3.559032   -1.843467   -2.145618
      3          8           0       -0.780634    0.549622    1.559678
      4          8           0       -2.352054   -2.187566    0.721791
      5          8           0       -2.787945    1.065148   -0.801006
      6          8           0       -0.743852    3.066470    3.696188
      7          8           0       -2.298610    3.527736    1.007140
      8          8           0        1.900072   -0.303970   -0.164006
      9          8           0        2.287796   -2.178609   -2.793880
     10          8           0        0.017154   -3.564946   -1.130639
     11          8           0        0.672636   -2.500629    1.909540
     12          8           0        3.708764    2.344338   -0.263127
     13          8           0        2.319057    0.886153   -3.216717
     14          8           0        0.338910    2.593537   -0.753703
     15          8           0        2.572094    3.995314   -2.728268
     16          8           0        1.887855    2.390519    2.224219
     17          1           0        1.534061    3.001100    2.879735
     18          1           0       -0.080858   -1.335857   -2.192111
     19          1           0        0.119062   -0.063496   -2.973049
     20          1           0       -3.976867   -2.377445   -2.823766
     21          1           0       -2.661798   -1.718761   -2.474039
     22          1           0       -1.538516   -0.014361    1.370546
     23          1           0       -0.951282    1.322831    1.010301
     24          1           0       -3.196693   -2.026671    0.291598
     25          1           0       -1.889702   -2.743454    0.085772
     26          1           0       -3.363079    0.372300   -1.138435
     27          1           0       -1.995432    0.973197   -1.341287
     28          1           0       -1.142793    2.220454    3.479019
     29          1           0       -1.267910    3.692487    3.186715
     30          1           0       -3.012998    2.988911    0.653722
     31          1           0       -1.686213    3.587875    0.268187
     32          1           0        1.034150    0.118481   -0.148631
     33          1           0        1.855278   -0.912350    0.581306
     34          1           0        2.604370   -1.650842   -2.054605
     35          1           0        2.444322   -1.605606   -3.550011
     36          1           0        0.548169   -3.517187   -0.329719
     37          1           0        0.670232   -3.709525   -1.823086
     38          1           0       -0.172069   -2.038118    1.860625
     39          1           0        0.643130   -2.928864    2.767014
     40          1           0        3.612301    1.406260   -0.070951
     41          1           0        3.619790    2.747259    0.606910
     42          1           0        2.549622    1.076628   -2.301441
     43          1           0        2.417550    1.739660   -3.649251
     44          1           0        0.667371    2.957257   -1.581703
     45          1           0        1.077078    2.721840   -0.148154
     46          1           0        3.260415    3.807675   -2.080215
     47          1           0        2.756504    4.895549   -3.003656
     48          1           0        1.316135    1.622226    2.321722
 ---------------------------------------------------------------------
                    Distance matrix (angstroms):
                    1          2          3          4          5
     1  O    0.000000
     2  O    3.275256   0.000000
     3  O    4.243969   5.213021   0.000000
     4  O    4.044530   3.130053   3.265519   0.000000
     5  O    3.257228   3.295846   3.141320   3.617881   0.000000
     6  O    7.211969   8.133844   3.301598   6.248059   5.329949
     7  O    5.685008   6.354398   3.388025   5.722670   3.094056
     8  O    3.425017   6.008216   3.299377   4.734252   4.925216
     9  O    3.283618   5.892195   5.984311   5.821360   6.344813
    10  O    3.352330   4.096679   4.980356   3.307842   5.423561
    11  O    4.992963   5.897727   3.396826   3.264584   5.660163
    12  O    5.647875   8.596647   5.167042   7.631627   6.643257
    13  O    3.304424   6.568867   5.703971   6.839508   5.652360
    14  O    3.740426   6.067815   3.283702   5.681313   3.480723
    15  O    5.545295   8.486551   6.442054   8.624277   6.405484
    16  O    6.113474   8.166437   3.309282   6.418176   5.724657
    17  H    6.812924   8.640810   3.620788   6.832340   5.997958
    18  H    0.963017   3.515327   4.256834   3.791380   3.876637
    19  H    0.962108   4.169090   4.661650   4.926452   3.800302
    20  H    3.871466   0.958959   6.164269   3.904747   4.166118
    21  H    2.390457   0.963556   4.995519   3.244850   3.250400
    22  H    4.056448   4.448766   0.963448   2.409470   2.728012
    23  H    4.032365   5.175483   0.963736   3.790552   2.592405
    24  H    4.121619   2.470805   3.752686   0.961441   3.304573
    25  H    3.646096   2.928437   3.774491   0.962965   4.012314
    26  H    3.264431   2.441811   3.739021   3.321976   0.961601
    27  H    2.418000   3.320450   3.173444   3.791292   0.963554
    28  H    6.649510   7.347803   2.570352   5.338095   4.728623
    29  H    7.165378   8.020586   3.572434   6.467321   5.011520
    30  H    5.367032   5.611269   3.428460   5.218946   2.422343
    31  H    5.137075   6.231644   3.423303   5.831365   2.953157
    32  H    2.948167   5.379082   2.529356   4.188301   3.991263
    33  H    3.953800   6.133339   3.169007   4.398586   5.232667
    34  H    3.380043   6.167083   5.418795   5.706364   6.166455
    35  H    3.341127   6.170021   6.415159   6.449201   6.485875
    36  H    3.838335   4.792487   4.677015   3.359294   5.687668
    37  H    3.443149   4.633883   5.629248   4.234025   5.983405
    38  H    4.642527   5.249704   2.675317   2.464064   4.853591
    39  H    5.919101   6.555166   3.947737   3.701836   6.360438
    40  H    5.234162   8.142050   4.763471   7.008392   6.450774
    41  H    6.193252   8.954700   5.010100   7.747814   6.772798
    42  H    3.531283   6.772510   5.126069   6.619768   5.544462
    43  H    3.937044   7.128762   6.227159   7.568239   5.971988
    44  H    3.857015   6.420859   4.214463   6.394702   4.016064
    45  H    4.383250   6.806277   3.329612   6.051282   4.255496
    46  H    5.832830   8.856892   6.339859   8.677209   6.763171
    47  H    6.415904   9.275590   7.226510   9.494569   7.089750
    48  H    5.645318   7.465615   2.475405   5.525387   5.187026
                    6          7          8          9         10
     6  O    0.000000
     7  O    3.140226   0.000000
     8  O    5.766394   5.803661   0.000000
     9  O    8.878216   8.248954   3.252820   0.000000
    10  O    8.237297   7.761379   3.887637   3.137533   0.000000
    11  O    6.015907   6.781137   3.260599   4.983432   3.287114
    12  O    6.001953   6.253203   3.208540   5.374096   7.021410
    13  O    7.869145   6.792774   3.303178   3.093951   5.427961
    14  O    4.604082   3.306026   3.343728   5.543812   6.178391
    15  O    7.289162   6.155945   5.050831   6.180813   8.138653
    16  O    3.090224   4.505667   3.600561   6.798397   7.086759
    17  H    2.420693   4.298061   4.507972   7.719288   7.842007
    18  H    7.381877   6.229620   3.016966   2.585126   2.470864
    19  H    7.417549   5.880815   3.334748   3.034668   3.957905
    20  H    9.088366   7.236266   6.775842   6.267889   4.497671
    21  H    8.040439   6.306841   5.305520   4.981189   3.519930
    22  H    3.941018   3.640914   3.776587   6.055335   4.613317
    23  H    3.208940   2.583972   3.486502   6.101107   5.423270
    24  H    6.599072   5.671860   5.399286   6.294671   3.836386
    25  H    6.935654   6.351689   4.513963   5.105187   2.406368
    26  H    6.123110   3.961485   5.395147   6.417166   5.189214
    27  H    5.596820   3.483202   4.265220   5.512708   4.968865
    28  H    0.960239   3.025737   5.376186   8.394639   7.487675
    29  H    0.962339   2.416616   6.102058   9.103863   8.541737
    30  H    3.796266   0.962074   5.970762   8.166250   7.437661
    31  H    3.593202   0.961612   5.309867   7.643385   7.484719
    32  H    5.160868   4.905723   0.963599   3.720967   3.945409
    33  H    5.682339   6.095120   0.963132   3.630753   3.653180
    34  H    8.156914   7.760874   2.425792   0.961917   3.348312
    35  H    9.192396   8.343514   3.668173   0.961544   3.947597
    36  H    7.824435   7.715069   3.489966   3.300028   0.962149
    37  H    8.853029   8.318783   3.982820   2.429539   0.962755
    38  H    5.454635   6.019082   3.376414   5.266412   3.363728
    39  H    6.223433   7.310176   4.130478   5.847337   3.998518
    40  H    5.993638   6.371955   2.421833   4.692541   6.225826
    41  H    5.356016   5.983042   3.586327   6.132190   7.472750
    42  H    7.125868   6.360817   2.626137   3.302668   5.415568
    43  H    8.106193   6.864500   4.073222   4.012646   6.343828
    44  H    5.464395   3.978014   3.763644   5.520169   6.570036
    45  H    4.267730   3.657792   3.135777   5.699132   6.450767
    46  H    7.067558   6.364973   4.735822   6.106628   8.110239
    47  H    7.777270   6.596330   5.985991   7.092771   9.088025
    48  H    2.866800   4.292491   3.198446   6.446693   6.364975
                   11         12         13         14         15
    11  O    0.000000
    12  O    6.116556   0.000000
    13  O    6.360779   3.575092   0.000000
    14  O    5.758017   3.414481   3.592016   0.000000
    15  O    8.204540   3.177210   3.157450   3.294085   0.000000
    16  O    5.049664   3.082975   5.661522   3.362806   5.250779
    17  H    5.652641   3.877918   6.500457   3.846604   5.789272
    18  H    4.329895   5.623704   3.427351   4.205397   5.978880
    19  H    5.485047   5.101696   2.408565   3.468956   4.748813
    20  H    6.636056   9.376621   7.102404   6.900852   9.138384
    21  H    5.562871   7.872799   5.669750   5.528085   7.752994
    22  H    3.370643   5.980493   6.060922   3.852051   7.055132
    23  H    4.250246   4.937725   5.362228   2.528043   5.790789
    24  H    4.220673   8.191384   7.156558   5.910961   8.869205
    25  H    3.154468   7.572990   6.464838   5.844220   8.557888
    26  H    5.816431   7.393650   6.072065   4.334355   7.133027
    27  H    5.454716   5.964923   4.705277   2.901708   5.649708
    28  H    5.296005   6.128345   7.654910   4.500063   7.448552
    29  H    6.614498   6.203725   7.857849   4.395049   7.058637
    30  H    6.730232   6.814556   6.916119   3.656836   6.606357
    31  H    6.732614   5.561875   5.957016   2.476710   5.222828
    32  H    3.350597   3.481538   3.413716   2.641093   4.904043
    33  H    2.384424   3.841158   4.227846   4.046340   5.962573
    34  H    4.490900   4.515589   2.805040   4.983915   5.686294
    35  H    5.809185   5.291926   2.517070   5.466708   5.662322
    36  H    2.462349   6.659675   5.555196   6.128988   8.141682
    37  H    3.923510   6.950928   5.077508   6.401714   7.987551
    38  H    0.964280   6.227127   6.366826   5.343036   8.061679
    39  H    0.958915   6.810765   7.291647   6.556288   9.047832
    40  H    5.275202   0.962407   3.440761   3.548361   3.853124
    41  H    6.158156   0.962926   4.446993   3.555147   3.711970
    42  H    5.835427   2.665600   0.962897   3.095764   2.949816
    43  H    7.205896   3.674058   0.961905   3.665249   2.441325
    44  H    6.478991   3.371110   3.113006   0.962166   2.453598
    45  H    5.627776   2.661108   3.785279   0.963350   3.242499
    46  H    7.899965   2.375748   3.273085   3.430591   0.963829
    47  H    9.120606   3.863415   4.038813   4.025706   0.959306
    48  H    4.193080   3.595492   5.676439   3.369963   5.719386
                   16         17         18         19         20
    16  O    0.000000
    17  H    0.963162   0.000000
    18  H    6.104562   6.865914   0.000000
    19  H    6.013519   6.756408   1.506232   0.000000
    20  H    9.089037   9.582745   4.082007   4.706727   0.000000
    21  H    7.723934   8.279204   2.624376   3.274461   1.511814
    22  H    4.272262   4.561950   4.069846   4.649387   5.396478
    23  H    3.267148   3.533879   4.252259   4.351392   6.127502
    24  H    7.007084   7.372718   4.044065   5.050367   3.230667
    25  H    6.723137   7.247640   3.231408   4.535823   3.599393
    26  H    6.553851   6.858444   3.847208   3.959928   3.283013
    27  H    5.459080   5.864021   3.117888   2.865042   4.165409
    28  H    3.284551   2.852034   6.777667   6.959733   8.300467
    29  H    3.546882   2.902291   7.458224   7.346686   8.961496
    30  H    5.181013   5.062710   5.949776   5.681589   6.466819
    31  H    4.246609   4.187440   5.733530   5.205491   7.098754
    32  H    3.394317   4.210749   2.744841   2.974532   6.204537
    33  H    3.689061   4.549840   3.408786   4.045793   6.910494
    34  H    5.929108   6.865409   2.707134   3.088683   6.665751
    35  H    7.044175   7.961906   2.879790   2.849179   6.508059
    36  H    6.574066   7.332165   2.936389   4.370275   5.291052
    37  H    7.421174   8.239855   2.516866   3.862607   4.936732
    38  H    4.897787   5.416935   4.114141   5.229560   6.044431
    39  H    5.489973   5.997578   5.258778   6.436871   7.273600
    40  H    3.034845   3.945775   5.065368   4.773371   8.915710
    41  H    2.396362   3.095228   6.180708   5.742086   9.784750
    42  H    4.758765   5.619568   3.570919   2.767411   7.402601
    43  H    5.933114   6.708162   4.221860   2.998611   7.649872
    44  H    4.036808   4.545053   4.400372   3.370673   7.181275
    45  H    2.528890   3.074887   4.688654   4.081167   7.661851
    46  H    4.735019   5.313376   6.134537   5.064703   9.549179
    47  H    5.861775   6.300603   6.894900   5.616864   9.912976
    48  H    0.962624   1.503384   5.574633   5.684122   8.395790
                   21         22         23         24         25
    21  H    0.000000
    22  H    4.352881   0.000000
    23  H    4.931305   1.504228   0.000000
    24  H    2.833667   2.821891   4.096043   0.000000
    25  H    2.863348   3.036762   4.274349   1.504782   0.000000
    26  H    2.578404   3.126263   3.367097   2.797810   3.657519
    27  H    2.995632   2.922000   2.596625   3.620573   3.982609
    28  H    7.298198   3.097847   2.633813   5.693525   6.059074
    29  H    7.954160   4.136716   3.233002   6.694078   7.171040
    30  H    5.662897   3.421634   2.674630   5.031992   5.868933
    31  H    6.052434   3.770028   2.494250   5.814226   6.337224
    32  H    4.737406   2.990678   2.595289   4.763981   4.098113
    33  H    5.512659   3.598211   3.613426   5.181511   4.198020
    34  H    5.283281   5.619006   5.556891   6.268831   5.096244
    35  H    5.219481   6.527399   6.395492   6.837858   5.770388
    36  H    4.258677   4.417572   5.241162   4.078194   2.591237
    37  H    3.935645   5.360232   5.998500   4.717732   3.336210
    38  H    5.008997   2.490572   3.553337   3.407393   2.568631
    39  H    6.313124   3.899235   4.868788   4.656810   3.693057
    40  H    7.409785   5.534166   4.690667   7.634059   6.893238
    41  H    8.300357   5.900661   4.804833   8.327921   7.795769
    42  H    5.916324   5.602376   4.825410   7.026696   6.324509
    43  H    6.256323   6.627625   5.764911   7.825296   7.252663
    44  H    5.809025   4.734155   3.465526   6.578737   6.466622
    45  H    6.253629   4.078551   2.722772   6.403660   6.223017
    46  H    8.109821   7.038853   5.784819   9.019941   8.610023
    47  H    8.566656   7.854174   6.528694   9.706512   9.459713
    48  H    7.070040   3.425228   2.636407   6.148290   5.859695
                   26         27         28         29         30
    26  H    0.000000
    27  H    1.507543   0.000000
    28  H    5.446671   5.051534   0.000000
    29  H    5.841258   5.331663   1.505980   0.000000
    30  H    3.190774   3.013072   3.474262   3.155377   0.000000
    31  H    3.889780   3.085865   3.531938   2.950208   1.505906
    32  H    4.514395   3.366205   4.724110   5.403474   5.026186
    33  H    5.642613   4.698895   5.215327   6.143857   6.239006
    34  H    6.367332   5.343462   7.723287   8.427168   7.772848
    35  H    6.591943   5.589285   8.770028   9.339911   8.280296
    36  H    5.574943   5.258966   7.091288   8.224527   7.481870
    37  H    5.779069   5.409786   8.158678   9.145725   8.035534
    38  H    4.998702   4.758667   4.657997   5.983245   5.899026
    39  H    6.496147   6.250298   5.496540   6.904384   7.270030
    40  H    7.131937   5.766105   5.989668   6.297276   6.850148
    41  H    7.579388   6.202700   5.586477   5.607001   6.637354
    42  H    6.067017   4.646516   6.953847   7.178867   6.582747
    43  H    6.448995   5.038708   7.982446   8.007907   7.040388
    44  H    4.808640   3.329386   5.424987   5.198431   4.306187
    45  H    5.120155   3.731171   4.282009   4.190761   4.176488
    46  H    7.520600   6.016993   7.267227   6.946909   6.892060
    47  H    7.835058   6.381944   8.024072   7.480906   7.092167
    48  H    5.952314   4.980497   2.782722   3.422204   4.836470
                   31         32         33         34         35
    31  H    0.000000
    32  H    4.428409   0.000000
    33  H    5.735175   1.506543   0.000000
    34  H    7.158814   3.037899   2.838051   0.000000
    35  H    7.655861   4.065765   4.230290   1.504626   0.000000
    36  H    7.472072   3.672472   3.053470   3.269012   4.197597
    37  H    7.948478   4.194027   3.874225   2.834196   3.249021
    38  H    6.039891   3.184807   2.648423   4.815353   6.025575
    39  H    7.357844   4.235587   3.211378   5.359833   6.700754
    40  H    5.740097   2.882928   2.981362   3.781095   4.747565
    41  H    5.382846   3.763888   4.062868   5.240041   6.132630
    42  H    5.554426   2.801659   3.570487   2.739164   2.960472
    43  H    5.966832   4.098336   5.024631   3.751440   3.346845
    44  H    3.059269   3.201073   4.589509   5.020974   5.277453
    45  H    2.925600   2.603713   3.787485   5.008745   5.671752
    46  H    5.480185   4.722015   5.597923   5.497859   5.668326
    47  H    5.670335   5.825637   6.884465   6.616576   6.531537
    48  H    4.134595   2.905754   3.121506   5.614692   6.794774
                   36         37         38         39         40
    36  H    0.000000
    37  H    1.510642   0.000000
    38  H    2.739342   4.131924   0.000000
    39  H    3.153553   4.656091   1.509808   0.000000
    40  H    5.804842   6.156054   5.469569   5.971878   0.000000
    41  H    7.039561   7.502988   6.232963   6.763500   1.502608
    42  H    5.384853   5.164125   5.867882   6.735571   2.492595
    43  H    6.492174   6.006797   7.164947   8.130937   3.787191
    44  H    6.595460   6.671151   6.124382   7.318357   3.655212
    45  H    6.264038   6.658331   5.315333   6.373145   2.857283
    46  H    8.004631   7.955090   7.841267   8.702113   3.150835
    47  H    9.099495   8.932725   8.961780   9.949292   4.637703
    48  H    5.833822   6.784113   3.978125   4.622082   3.323237
                   41         42         43         44         45
    41  H    0.000000
    42  H    3.520621   0.000000
    43  H    4.536027   1.507861   0.000000
    44  H    3.681155   2.756385   2.969920   0.000000
    45  H    2.652575   3.084113   3.875464   1.509418   0.000000
    46  H    2.911061   2.830686   2.729282   2.774095   3.111086
    47  H    4.289126   3.888453   3.239030   3.184871   3.962244
    48  H    3.084332   4.815891   6.072843   4.176114   2.714146
                   46         47         48
    46  H    0.000000
    47  H    1.513321   0.000000
    48  H    5.285212   6.414745   0.000000
 Symmetry turned off by external request.
 Stoichiometry    H32O16
 Framework group  C1[X(H32O16)]
 Deg. of freedom   138
 Full point group                 C1      NOp   1
 Rotational constants (GHZ):      0.2272155      0.1965936      0.1563597
 Standard basis: 6-31G(d) (6D, 7F)
 Integral buffers will be    131072 words long.
 Raffenetti 1 integral format.
 Two-electron integral symmetry is turned off.
   304 basis functions,   576 primitive gaussians,   304 cartesian basis functions
    80 alpha electrons       80 beta electrons
       nuclear repulsion energy      1513.4892731290 Hartrees.
 NAtoms=   48 NActive=   48 NUniq=   48 SFac= 7.50D-01 NAtFMM=   80 NAOKFM=F Big=F
 One-electron integrals computed using PRISM.
 NBasis=   304 RedAO= T  NBF=   304
 NBsUse=   304 1.00D-06 NBFU=   304
 Harris functional with IExCor=  205 diagonalized for initial guess.
 ExpMin= 1.61D-01 ExpMax= 5.48D+03 ExpMxC= 8.25D+02 IAcc=1 IRadAn=         1 AccDes= 0.00D+00
 HarFok:  IExCor=  205 AccDes= 0.00D+00 IRadAn=         1 IDoV= 1
 ScaDFX=  1.000000  1.000000  1.000000  1.000000
 FoFCou: FMM=F IPFlag=           0 FMFlag=      100000 FMFlg1=           0
         NFxFlg=           0 DoJE=T BraDBF=F KetDBF=T FulRan=T
         Omega=  0.000000  0.000000  1.000000  0.000000  0.000000 ICntrl=     500 IOpCl=  0
         NMat0=    1 NMatS0=    1 NMatT0=    0 NMatD0=    1 NMtDS0=    0 NMtDT0=    0
         I1Cent=           4 NGrid=           0.
 Symmetry not used in FoFCou.
 Requested convergence on RMS density matrix=1.00D-08 within 128 cycles.
 Requested convergence on MAX density matrix=1.00D-06.
 Requested convergence on             energy=1.00D-06.
 No special actions if energy rises.
 Integral accuracy reduced to 1.0D-05 until final iterations.
 Initial convergence to 1.0D-05 achieved.  Increase integral accuracy.
 SCF Done:  E(RHF) =  -1216.36186771     A.U. after   11 cycles
             Convg  =    0.4804D-08             -V/T =  2.0031

 **********************************************************************

            Population analysis using the SCF density.

 **********************************************************************

 Alpha  occ. eigenvalues --  -20.58627 -20.57703 -20.57468 -20.56858 -20.56551
 Alpha  occ. eigenvalues --  -20.56420 -20.56251 -20.55942 -20.55600 -20.55495
 Alpha  occ. eigenvalues --  -20.55357 -20.55276 -20.55255 -20.54964 -20.54632
 Alpha  occ. eigenvalues --  -20.53791  -1.36526  -1.35548  -1.35386  -1.34811
 Alpha  occ. eigenvalues --   -1.34500  -1.34131  -1.34000  -1.33886  -1.33520
 Alpha  occ. eigenvalues --   -1.33330  -1.33242  -1.33109  -1.32985  -1.32724
 Alpha  occ. eigenvalues --   -1.32452  -1.31647  -0.72851  -0.72151  -0.71799
 Alpha  occ. eigenvalues --   -0.71332  -0.70858  -0.70354  -0.70282  -0.69935
 Alpha  occ. eigenvalues --   -0.69679  -0.69501  -0.69275  -0.69158  -0.68890
 Alpha  occ. eigenvalues --   -0.68727  -0.68562  -0.67893  -0.60915  -0.60009
 Alpha  occ. eigenvalues --   -0.59645  -0.59422  -0.58962  -0.58840  -0.58156
 Alpha  occ. eigenvalues --   -0.58119  -0.57883  -0.57547  -0.57052  -0.56643
 Alpha  occ. eigenvalues --   -0.56388  -0.55884  -0.55562  -0.54200  -0.52260
 Alpha  occ. eigenvalues --   -0.51335  -0.51107  -0.50921  -0.50712  -0.50159
 Alpha  occ. eigenvalues --   -0.49921  -0.49702  -0.49589  -0.49195  -0.49036
 Alpha  occ. eigenvalues --   -0.48943  -0.48731  -0.48469  -0.48089  -0.47255
 Alpha virt. eigenvalues --    0.14834   0.17872   0.19897   0.20310   0.21813
 Alpha virt. eigenvalues --    0.23291   0.24819   0.26064   0.26573   0.27116
 Alpha virt. eigenvalues --    0.27756   0.28558   0.29352   0.31048   0.31681
 Alpha virt. eigenvalues --    0.32384   0.33768   0.34578   0.35016   0.35573
 Alpha virt. eigenvalues --    0.35694   0.36398   0.36577   0.36937   0.37131
 Alpha virt. eigenvalues --    0.37600   0.38014   0.38301   0.39472   0.39659
 Alpha virt. eigenvalues --    0.39874   0.41052   0.95420   0.96574   0.96952
 Alpha virt. eigenvalues --    0.97468   0.98507   0.98927   0.99405   0.99845
 Alpha virt. eigenvalues --    1.01414   1.02185   1.02538   1.02987   1.04425
 Alpha virt. eigenvalues --    1.04627   1.05406   1.05909   1.07851   1.08424
 Alpha virt. eigenvalues --    1.09005   1.09256   1.10313   1.10983   1.12086
 Alpha virt. eigenvalues --    1.12594   1.13444   1.13561   1.13872   1.14181
 Alpha virt. eigenvalues --    1.14802   1.15363   1.15695   1.16489   1.16749
 Alpha virt. eigenvalues --    1.17008   1.18036   1.18119   1.18848   1.19170
 Alpha virt. eigenvalues --    1.19584   1.19638   1.20204   1.20715   1.21003
 Alpha virt. eigenvalues --    1.22220   1.22507   1.23061   1.23408   1.23999
 Alpha virt. eigenvalues --    1.24946   1.25593   1.26966   1.27493   1.28480
 Alpha virt. eigenvalues --    1.29611   1.29715   1.30226   1.31876   1.32900
 Alpha virt. eigenvalues --    1.33689   1.34984   1.35684   1.36945   1.37432
 Alpha virt. eigenvalues --    1.38686   1.39340   1.40215   1.40804   1.42095
 Alpha virt. eigenvalues --    1.43225   1.43456   1.44511   1.45276   1.46191
 Alpha virt. eigenvalues --    1.46900   1.48523   1.48996   1.49768   1.49860
 Alpha virt. eigenvalues --    1.52477   1.53172   1.54773   1.55671   1.56229
 Alpha virt. eigenvalues --    1.56964   1.59325   1.59703   1.62040   1.62741
 Alpha virt. eigenvalues --    1.64401   1.65101   1.69160   1.70072   1.72596
 Alpha virt. eigenvalues --    1.76835   1.80950   1.86961   1.99650   2.00393
 Alpha virt. eigenvalues --    2.00754   2.01171   2.01584   2.01939   2.01973
 Alpha virt. eigenvalues --    2.02203   2.02353   2.02632   2.02743   2.02824
 Alpha virt. eigenvalues --    2.02996   2.03065   2.03165   2.03460   2.03652
 Alpha virt. eigenvalues --    2.03818   2.03884   2.04082   2.04158   2.04410
 Alpha virt. eigenvalues --    2.04693   2.04867   2.05128   2.05276   2.05708
 Alpha virt. eigenvalues --    2.05895   2.06148   2.06557   2.06880   2.07017
 Alpha virt. eigenvalues --    2.07541   2.07748   2.07928   2.08197   2.08526
 Alpha virt. eigenvalues --    2.09333   2.09729   2.09823   2.10187   2.10541
 Alpha virt. eigenvalues --    2.10830   2.11047   2.11311   2.11587   2.13461
 Alpha virt. eigenvalues --    2.15131   2.59928   2.60085   2.61196   2.61315
 Alpha virt. eigenvalues --    2.61454   2.62058   2.62586   2.62712   2.63083
 Alpha virt. eigenvalues --    2.63284   2.63701   2.64201   2.64354   2.64713
 Alpha virt. eigenvalues --    2.65519   2.65939   2.91712   2.92123   2.93022
 Alpha virt. eigenvalues --    2.93649   2.94050   2.94523   2.95064   2.95606
 Alpha virt. eigenvalues --    2.95933   2.96301   2.96712   2.96838   2.96924
 Alpha virt. eigenvalues --    2.98019   2.99177   2.99937   3.99047   4.00271
 Alpha virt. eigenvalues --    4.01321   4.02593   4.04007   4.04653   4.07238
 Alpha virt. eigenvalues --    4.08719   4.11588   4.12969   4.13877   4.16280
 Alpha virt. eigenvalues --    4.23895   4.26776   4.31967   4.47016
          Condensed to atoms (all electrons):
              1          2          3          4          5          6
     1  O    8.424416  -0.001975  -0.000023  -0.000021  -0.002191   0.000000
     2  O   -0.001975   8.380012   0.000000  -0.002363  -0.001602   0.000000
     3  O   -0.000023   0.000000   8.433196  -0.002464  -0.002238  -0.001766
     4  O   -0.000021  -0.002363  -0.002464   8.397961  -0.000247   0.000000
     5  O   -0.002191  -0.001602  -0.002238  -0.000247   8.412404   0.000000
     6  O    0.000000   0.000000  -0.001766   0.000000   0.000000   8.387345
     7  O    0.000000   0.000000  -0.001569   0.000000  -0.002410  -0.002316
     8  O   -0.000757   0.000000  -0.001977  -0.000001   0.000000   0.000000
     9  O   -0.001732   0.000000   0.000000   0.000000   0.000000   0.000000
    10  O   -0.002093  -0.000042   0.000000  -0.001446   0.000000   0.000000
    11  O    0.000000   0.000000  -0.000547  -0.001049   0.000000   0.000000
    12  O    0.000000   0.000000   0.000000   0.000000   0.000000   0.000000
    13  O   -0.002365   0.000000   0.000000   0.000000   0.000000   0.000000
    14  O   -0.000114   0.000000  -0.000789   0.000000  -0.000347  -0.000002
    15  O    0.000000   0.000000   0.000000   0.000000   0.000000   0.000000
    16  O    0.000000   0.000000  -0.001059   0.000000   0.000000  -0.003526
    17  H    0.000000   0.000000  -0.000029   0.000000   0.000000   0.013537
    18  H    0.249900   0.000157  -0.000001   0.000083   0.000084   0.000000
    19  H    0.257421   0.000040  -0.000002   0.000000   0.000085   0.000000
    20  H   -0.000010   0.263892   0.000000   0.000100   0.000050   0.000000
    21  H    0.013568   0.253055   0.000000   0.000622   0.000503   0.000000
    22  H    0.000034  -0.000003   0.252557   0.014589   0.005548   0.000034
    23  H   -0.000018   0.000000   0.248129  -0.000044   0.004134   0.000758
    24  H    0.000001   0.008456   0.000091   0.262499   0.000857   0.000000
    25  H    0.000085   0.002214   0.000120   0.256794   0.000008   0.000000
    26  H    0.000136   0.011456   0.000083   0.000618   0.260556   0.000000
    27  H    0.013590   0.000060   0.000715   0.000054   0.257291   0.000000
    28  H    0.000000   0.000000   0.010938   0.000000  -0.000002   0.261305
    29  H    0.000000   0.000000  -0.000040   0.000000   0.000000   0.263852
    30  H    0.000000   0.000000   0.000235   0.000000   0.009638   0.000122
    31  H    0.000000   0.000000   0.000066   0.000000   0.000715   0.000219
    32  H    0.003914   0.000000   0.011874   0.000012  -0.000009   0.000000
    33  H   -0.000008   0.000000   0.000552  -0.000001   0.000000   0.000000
    34  H    0.000194   0.000000   0.000000   0.000000   0.000000   0.000000
    35  H    0.000348   0.000000   0.000000   0.000000   0.000000   0.000000
    36  H    0.000067   0.000001  -0.000002   0.000333   0.000000   0.000000
    37  H    0.000182   0.000001   0.000000   0.000042   0.000000   0.000000
    38  H   -0.000002   0.000000   0.004664   0.007913  -0.000005   0.000000
    39  H    0.000000   0.000000  -0.000005   0.000028   0.000000   0.000000
    40  H    0.000000   0.000000   0.000000   0.000000   0.000000   0.000000
    41  H    0.000000   0.000000   0.000000   0.000000   0.000000   0.000001
    42  H    0.000203   0.000000  -0.000001   0.000000   0.000000   0.000000
    43  H    0.000065   0.000000   0.000000   0.000000   0.000000   0.000000
    44  H    0.000059   0.000000   0.000037   0.000000   0.000022   0.000000
    45  H   -0.000005   0.000000   0.000183   0.000000   0.000012   0.000005
    46  H    0.000000   0.000000   0.000000   0.000000   0.000000   0.000000
    47  H    0.000000   0.000000   0.000000   0.000000   0.000000   0.000000
    48  H    0.000000   0.000000   0.008505   0.000000   0.000000   0.002067
              7          8          9         10         11         12
     1  O    0.000000  -0.000757  -0.001732  -0.002093   0.000000   0.000000
     2  O    0.000000   0.000000   0.000000  -0.000042   0.000000   0.000000
     3  O   -0.001569  -0.001977   0.000000   0.000000  -0.000547   0.000000
     4  O    0.000000  -0.000001   0.000000  -0.001446  -0.001049   0.000000
     5  O   -0.002410   0.000000   0.000000   0.000000   0.000000   0.000000
     6  O   -0.002316   0.000000   0.000000   0.000000   0.000000   0.000000
     7  O    8.387912   0.000000   0.000000   0.000000   0.000000   0.000000
     8  O    0.000000   8.415607  -0.002275  -0.000097  -0.001956  -0.002619
     9  O    0.000000  -0.002275   8.388599  -0.002301   0.000000   0.000000
    10  O    0.000000  -0.000097  -0.002301   8.391972  -0.001974   0.000000
    11  O    0.000000  -0.001956   0.000000  -0.001974   8.371427   0.000000
    12  O    0.000000  -0.002619   0.000000   0.000000   0.000000   8.399875
    13  O    0.000000  -0.000513  -0.001813   0.000000   0.000000  -0.000601
    14  O   -0.002131  -0.001138   0.000000   0.000000   0.000000  -0.001163
    15  O    0.000000   0.000000   0.000000   0.000000   0.000000  -0.002343
    16  O   -0.000004  -0.000143   0.000000   0.000000   0.000000  -0.002834
    17  H    0.000008   0.000004   0.000000   0.000000   0.000000   0.000105
    18  H    0.000000   0.002196   0.009116   0.014996   0.000000   0.000000
    19  H    0.000000   0.000194   0.001318  -0.000037   0.000000   0.000000
    20  H    0.000000   0.000000   0.000000   0.000000   0.000000   0.000000
    21  H    0.000000   0.000000  -0.000001   0.000412   0.000000   0.000000
    22  H   -0.000038   0.000074   0.000000  -0.000001   0.000072   0.000000
    23  H    0.011294   0.000073   0.000000   0.000000   0.000027  -0.000001
    24  H    0.000000   0.000000   0.000000  -0.000015   0.000044   0.000000
    25  H    0.000000  -0.000001   0.000000   0.011234   0.000875   0.000000
    26  H    0.000097   0.000000   0.000000   0.000000   0.000000   0.000000
    27  H    0.000179  -0.000016   0.000000  -0.000001   0.000000   0.000000
    28  H    0.001215   0.000000   0.000000   0.000000   0.000000   0.000000
    29  H    0.010298   0.000000   0.000000   0.000000   0.000000   0.000000
    30  H    0.263260   0.000000   0.000000   0.000000   0.000000   0.000000
    31  H    0.259142   0.000000   0.000000   0.000000   0.000000   0.000000
    32  H   -0.000002   0.250887   0.000060   0.000009  -0.000003   0.000161
    33  H    0.000000   0.257929   0.000153   0.000170   0.013589   0.000082
    34  H    0.000000   0.013526   0.258417   0.000467  -0.000003  -0.000005
    35  H    0.000000  -0.000043   0.264579   0.000097   0.000000   0.000000
    36  H    0.000000   0.000485   0.000211   0.255273   0.013036   0.000000
    37  H    0.000000  -0.000016   0.009894   0.258906  -0.000015   0.000000
    38  H    0.000000   0.000324   0.000000   0.000326   0.253986   0.000000
    39  H    0.000000   0.000060   0.000000   0.000058   0.264572   0.000000
    40  H    0.000000   0.014292  -0.000002   0.000000   0.000000   0.256573
    41  H    0.000000  -0.000035   0.000000   0.000000   0.000000   0.261213
    42  H    0.000000   0.003674   0.000333   0.000000   0.000000   0.006377
    43  H    0.000000   0.000014   0.000080   0.000000   0.000000  -0.000038
    44  H    0.000048   0.000032   0.000000   0.000000   0.000000   0.000028
    45  H    0.000127   0.000833   0.000000   0.000000   0.000000   0.008601
    46  H    0.000000  -0.000002   0.000000   0.000000   0.000000   0.012655
    47  H    0.000000   0.000000   0.000000   0.000000   0.000000   0.000034
    48  H   -0.000011   0.001339   0.000000   0.000000   0.000015   0.000172
             13         14         15         16         17         18
     1  O   -0.002365  -0.000114   0.000000   0.000000   0.000000   0.249900
     2  O    0.000000   0.000000   0.000000   0.000000   0.000000   0.000157
     3  O    0.000000  -0.000789   0.000000  -0.001059  -0.000029  -0.000001
     4  O    0.000000   0.000000   0.000000   0.000000   0.000000   0.000083
     5  O    0.000000  -0.000347   0.000000   0.000000   0.000000   0.000084
     6  O    0.000000  -0.000002   0.000000  -0.003526   0.013537   0.000000
     7  O    0.000000  -0.002131   0.000000  -0.000004   0.000008   0.000000
     8  O   -0.000513  -0.001138   0.000000  -0.000143   0.000004   0.002196
     9  O   -0.001813   0.000000   0.000000   0.000000   0.000000   0.009116
    10  O    0.000000   0.000000   0.000000   0.000000   0.000000   0.014996
    11  O    0.000000   0.000000   0.000000   0.000000   0.000000   0.000000
    12  O   -0.000601  -0.001163  -0.002343  -0.002834   0.000105   0.000000
    13  O    8.390796  -0.000448  -0.002086   0.000000   0.000000  -0.000089
    14  O   -0.000448   8.407001  -0.001842  -0.001768   0.000060  -0.000024
    15  O   -0.002086  -0.001842   8.375686   0.000000   0.000000   0.000000
    16  O    0.000000  -0.001768   0.000000   8.398194   0.261712   0.000000
    17  H    0.000000   0.000060   0.000000   0.261712   0.274232   0.000000
    18  H   -0.000089  -0.000024   0.000000   0.000000   0.000000   0.268662
    19  H    0.016656   0.000451  -0.000002   0.000000   0.000000  -0.015496
    20  H    0.000000   0.000000   0.000000   0.000000   0.000000   0.000001
    21  H    0.000000   0.000000   0.000000   0.000000   0.000000  -0.000743
    22  H    0.000000  -0.000017   0.000000   0.000037  -0.000001   0.000007
    23  H    0.000000   0.004620   0.000000   0.000697   0.000033   0.000002
    24  H    0.000000   0.000000   0.000000   0.000000   0.000000  -0.000001
    25  H    0.000000   0.000000   0.000000   0.000000   0.000000   0.000157
    26  H    0.000000   0.000001   0.000000   0.000000   0.000000  -0.000003
    27  H   -0.000003   0.002973   0.000000   0.000000   0.000000  -0.000283
    28  H    0.000000  -0.000002   0.000000   0.000378  -0.000713   0.000000
    29  H    0.000000   0.000001   0.000000   0.000255  -0.000423   0.000000
    30  H    0.000000  -0.000074   0.000000   0.000000   0.000000   0.000000
    31  H    0.000000   0.013381   0.000000   0.000005   0.000002   0.000000
    32  H    0.000184   0.007931  -0.000001   0.000086  -0.000005  -0.000062
    33  H    0.000023  -0.000005   0.000000   0.000052  -0.000002   0.000013
    34  H    0.001111  -0.000001   0.000000   0.000000   0.000000  -0.000227
    35  H    0.006870   0.000000   0.000000   0.000000   0.000000  -0.000286
    36  H    0.000000   0.000000   0.000000   0.000000   0.000000  -0.000387
    37  H    0.000000   0.000000   0.000000   0.000000   0.000000  -0.000817
    38  H    0.000000   0.000000   0.000000  -0.000001   0.000000   0.000008
    39  H    0.000000   0.000000   0.000000   0.000000   0.000000   0.000000
    40  H    0.000171   0.000078   0.000087   0.000648  -0.000005  -0.000001
    41  H    0.000018   0.000066   0.000123   0.010235  -0.000181   0.000000
    42  H    0.256726   0.001828   0.000361  -0.000003   0.000000   0.000010
    43  H    0.261958   0.000024   0.010653   0.000000   0.000000   0.000004
    44  H    0.001843   0.258803   0.012141  -0.000016  -0.000001  -0.000001
    45  H   -0.000037   0.250302   0.000360   0.013231  -0.000232   0.000000
    46  H    0.000378   0.000275   0.254466  -0.000001   0.000000   0.000000
    47  H    0.000075   0.000062   0.263503   0.000000   0.000000   0.000000
    48  H    0.000000   0.000226   0.000000   0.260125  -0.017132   0.000000
             19         20         21         22         23         24
     1  O    0.257421  -0.000010   0.013568   0.000034  -0.000018   0.000001
     2  O    0.000040   0.263892   0.253055  -0.000003   0.000000   0.008456
     3  O   -0.000002   0.000000   0.000000   0.252557   0.248129   0.000091
     4  O    0.000000   0.000100   0.000622   0.014589  -0.000044   0.262499
     5  O    0.000085   0.000050   0.000503   0.005548   0.004134   0.000857
     6  O    0.000000   0.000000   0.000000   0.000034   0.000758   0.000000
     7  O    0.000000   0.000000   0.000000  -0.000038   0.011294   0.000000
     8  O    0.000194   0.000000   0.000000   0.000074   0.000073   0.000000
     9  O    0.001318   0.000000  -0.000001   0.000000   0.000000   0.000000
    10  O   -0.000037   0.000000   0.000412  -0.000001   0.000000  -0.000015
    11  O    0.000000   0.000000   0.000000   0.000072   0.000027   0.000044
    12  O    0.000000   0.000000   0.000000   0.000000  -0.000001   0.000000
    13  O    0.016656   0.000000   0.000000   0.000000   0.000000   0.000000
    14  O    0.000451   0.000000   0.000000  -0.000017   0.004620   0.000000
    15  O   -0.000002   0.000000   0.000000   0.000000   0.000000   0.000000
    16  O    0.000000   0.000000   0.000000   0.000037   0.000697   0.000000
    17  H    0.000000   0.000000   0.000000  -0.000001   0.000033   0.000000
    18  H   -0.015496   0.000001  -0.000743   0.000007   0.000002  -0.000001
    19  H    0.273820  -0.000002  -0.000153   0.000000   0.000003   0.000000
    20  H   -0.000002   0.306886  -0.014371   0.000000   0.000000  -0.000137
    21  H   -0.000153  -0.014371   0.273319   0.000002   0.000000  -0.000607
    22  H    0.000000   0.000000   0.000002   0.267545  -0.013637  -0.000474
    23  H    0.000003   0.000000   0.000000  -0.013637   0.265365   0.000006
    24  H    0.000000  -0.000137  -0.000607  -0.000474   0.000006   0.281576
    25  H   -0.000003  -0.000026   0.000196  -0.000403   0.000001  -0.015964
    26  H   -0.000001  -0.000162  -0.000979  -0.000067  -0.000029   0.000279
    27  H   -0.000433  -0.000001   0.000176  -0.000210  -0.000214  -0.000041
    28  H    0.000000   0.000000   0.000000  -0.000070  -0.000379   0.000000
    29  H    0.000000   0.000000   0.000000  -0.000001   0.000077   0.000000
    30  H    0.000000   0.000000   0.000000   0.000047  -0.000382   0.000000
    31  H    0.000000   0.000000   0.000000  -0.000008  -0.000217   0.000000
    32  H   -0.000069   0.000000  -0.000003  -0.000233  -0.000234   0.000000
    33  H   -0.000001   0.000000   0.000000  -0.000017  -0.000011   0.000000
    34  H   -0.000045   0.000000   0.000000   0.000000   0.000000   0.000000
    35  H    0.000209   0.000000   0.000000   0.000000   0.000000   0.000000
    36  H    0.000000   0.000000  -0.000012   0.000001   0.000000   0.000001
    37  H    0.000006   0.000000  -0.000014   0.000000   0.000000  -0.000001
    38  H    0.000000   0.000000   0.000000  -0.000105  -0.000106  -0.000113
    39  H    0.000000   0.000000   0.000000   0.000001   0.000000  -0.000002
    40  H   -0.000001   0.000000   0.000000   0.000000   0.000000   0.000000
    41  H    0.000000   0.000000   0.000000   0.000000   0.000000   0.000000
    42  H   -0.000785   0.000000   0.000000   0.000000   0.000000   0.000000
    43  H   -0.000286   0.000000   0.000000   0.000000   0.000000   0.000000
    44  H    0.000069   0.000000   0.000000  -0.000001  -0.000026   0.000000
    45  H   -0.000012   0.000000   0.000000   0.000003  -0.000472   0.000000
    46  H    0.000000   0.000000   0.000000   0.000000   0.000000   0.000000
    47  H    0.000000   0.000000   0.000000   0.000000   0.000000   0.000000
    48  H    0.000000   0.000000   0.000000  -0.000102  -0.001088   0.000000
             25         26         27         28         29         30
     1  O    0.000085   0.000136   0.013590   0.000000   0.000000   0.000000
     2  O    0.002214   0.011456   0.000060   0.000000   0.000000   0.000000
     3  O    0.000120   0.000083   0.000715   0.010938  -0.000040   0.000235
     4  O    0.256794   0.000618   0.000054   0.000000   0.000000   0.000000
     5  O    0.000008   0.260556   0.257291  -0.000002   0.000000   0.009638
     6  O    0.000000   0.000000   0.000000   0.261305   0.263852   0.000122
     7  O    0.000000   0.000097   0.000179   0.001215   0.010298   0.263260
     8  O   -0.000001   0.000000  -0.000016   0.000000   0.000000   0.000000
     9  O    0.000000   0.000000   0.000000   0.000000   0.000000   0.000000
    10  O    0.011234   0.000000  -0.000001   0.000000   0.000000   0.000000
    11  O    0.000875   0.000000   0.000000   0.000000   0.000000   0.000000
    12  O    0.000000   0.000000   0.000000   0.000000   0.000000   0.000000
    13  O    0.000000   0.000000  -0.000003   0.000000   0.000000   0.000000
    14  O    0.000000   0.000001   0.002973  -0.000002   0.000001  -0.000074
    15  O    0.000000   0.000000   0.000000   0.000000   0.000000   0.000000
    16  O    0.000000   0.000000   0.000000   0.000378   0.000255   0.000000
    17  H    0.000000   0.000000   0.000000  -0.000713  -0.000423   0.000000
    18  H    0.000157  -0.000003  -0.000283   0.000000   0.000000   0.000000
    19  H   -0.000003  -0.000001  -0.000433   0.000000   0.000000   0.000000
    20  H   -0.000026  -0.000162  -0.000001   0.000000   0.000000   0.000000
    21  H    0.000196  -0.000979   0.000176   0.000000   0.000000   0.000000
    22  H   -0.000403  -0.000067  -0.000210  -0.000070  -0.000001   0.000047
    23  H    0.000001  -0.000029  -0.000214  -0.000379   0.000077  -0.000382
    24  H   -0.015964   0.000279  -0.000041   0.000000   0.000000   0.000000
    25  H    0.275915  -0.000045   0.000007   0.000000   0.000000   0.000000
    26  H   -0.000045   0.283501  -0.016470   0.000000   0.000000  -0.000128
    27  H    0.000007  -0.016470   0.270758  -0.000001   0.000000  -0.000345
    28  H    0.000000   0.000000  -0.000001   0.295339  -0.018181  -0.000004
    29  H    0.000000   0.000000   0.000000  -0.018181   0.280128  -0.000221
    30  H    0.000000  -0.000128  -0.000345  -0.000004  -0.000221   0.280747
    31  H    0.000000  -0.000002   0.000033  -0.000035  -0.000469  -0.017480
    32  H    0.000008   0.000000   0.000255  -0.000005   0.000000   0.000000
    33  H   -0.000002   0.000000  -0.000001   0.000000   0.000000   0.000000
    34  H    0.000000   0.000000   0.000000   0.000000   0.000000   0.000000
    35  H    0.000000   0.000000   0.000000   0.000000   0.000000   0.000000
    36  H   -0.001344   0.000000   0.000000   0.000000   0.000000   0.000000
    37  H   -0.000179   0.000000   0.000000   0.000000   0.000000   0.000000
    38  H   -0.001214   0.000000   0.000001   0.000000   0.000000   0.000000
    39  H   -0.000006   0.000000   0.000000   0.000000   0.000000   0.000000
    40  H    0.000000   0.000000   0.000000   0.000000   0.000000   0.000000
    41  H    0.000000   0.000000   0.000000   0.000000   0.000000   0.000000
    42  H    0.000000   0.000000   0.000001   0.000000   0.000000   0.000000
    43  H    0.000000   0.000000   0.000000   0.000000   0.000000   0.000000
    44  H    0.000000   0.000000  -0.000103   0.000000   0.000000   0.000001
    45  H    0.000000   0.000000  -0.000062   0.000001   0.000004   0.000000
    46  H    0.000000   0.000000   0.000000   0.000000   0.000000   0.000000
    47  H    0.000000   0.000000   0.000000   0.000000   0.000000   0.000000
    48  H    0.000000   0.000000   0.000000   0.000190  -0.000062   0.000000
             31         32         33         34         35         36
     1  O    0.000000   0.003914  -0.000008   0.000194   0.000348   0.000067
     2  O    0.000000   0.000000   0.000000   0.000000   0.000000   0.000001
     3  O    0.000066   0.011874   0.000552   0.000000   0.000000  -0.000002
     4  O    0.000000   0.000012  -0.000001   0.000000   0.000000   0.000333
     5  O    0.000715  -0.000009   0.000000   0.000000   0.000000   0.000000
     6  O    0.000219   0.000000   0.000000   0.000000   0.000000   0.000000
     7  O    0.259142  -0.000002   0.000000   0.000000   0.000000   0.000000
     8  O    0.000000   0.250887   0.257929   0.013526  -0.000043   0.000485
     9  O    0.000000   0.000060   0.000153   0.258417   0.264579   0.000211
    10  O    0.000000   0.000009   0.000170   0.000467   0.000097   0.255273
    11  O    0.000000  -0.000003   0.013589  -0.000003   0.000000   0.013036
    12  O    0.000000   0.000161   0.000082  -0.000005   0.000000   0.000000
    13  O    0.000000   0.000184   0.000023   0.001111   0.006870   0.000000
    14  O    0.013381   0.007931  -0.000005  -0.000001   0.000000   0.000000
    15  O    0.000000  -0.000001   0.000000   0.000000   0.000000   0.000000
    16  O    0.000005   0.000086   0.000052   0.000000   0.000000   0.000000
    17  H    0.000002  -0.000005  -0.000002   0.000000   0.000000   0.000000
    18  H    0.000000  -0.000062   0.000013  -0.000227  -0.000286  -0.000387
    19  H    0.000000  -0.000069  -0.000001  -0.000045   0.000209   0.000000
    20  H    0.000000   0.000000   0.000000   0.000000   0.000000   0.000000
    21  H    0.000000  -0.000003   0.000000   0.000000   0.000000  -0.000012
    22  H   -0.000008  -0.000233  -0.000017   0.000000   0.000000   0.000001
    23  H   -0.000217  -0.000234  -0.000011   0.000000   0.000000   0.000000
    24  H    0.000000   0.000000   0.000000   0.000000   0.000000   0.000001
    25  H    0.000000   0.000008  -0.000002   0.000000   0.000000  -0.001344
    26  H   -0.000002   0.000000   0.000000   0.000000   0.000000   0.000000
    27  H    0.000033   0.000255  -0.000001   0.000000   0.000000   0.000000
    28  H   -0.000035  -0.000005   0.000000   0.000000   0.000000   0.000000
    29  H   -0.000469   0.000000   0.000000   0.000000   0.000000   0.000000
    30  H   -0.017480   0.000000   0.000000   0.000000   0.000000   0.000000
    31  H    0.285485  -0.000005   0.000000   0.000000   0.000000   0.000000
    32  H   -0.000005   0.266522  -0.015069  -0.000339  -0.000004   0.000003
    33  H    0.000000  -0.015069   0.271129  -0.000531   0.000000   0.000143
    34  H    0.000000  -0.000339  -0.000531   0.281578  -0.017512   0.000098
    35  H    0.000000  -0.000004   0.000000  -0.017512   0.286966  -0.000006
    36  H    0.000000   0.000003   0.000143   0.000098  -0.000006   0.287448
    37  H    0.000000  -0.000004  -0.000004  -0.000726  -0.000151  -0.014200
    38  H    0.000000   0.000192  -0.000962   0.000000   0.000000  -0.000879
    39  H    0.000000  -0.000002  -0.000202   0.000000   0.000000  -0.000260
    40  H    0.000000  -0.000557  -0.000260   0.000025   0.000000   0.000000
    41  H    0.000000   0.000005   0.000000   0.000000   0.000000   0.000000
    42  H    0.000000  -0.000282  -0.000036   0.000151  -0.000349   0.000000
    43  H    0.000000   0.000000  -0.000001   0.000000  -0.000048   0.000000
    44  H   -0.000203  -0.000126   0.000001  -0.000001   0.000000   0.000000
    45  H   -0.000376  -0.000689  -0.000001   0.000000   0.000000   0.000000
    46  H    0.000000   0.000000   0.000000   0.000000   0.000000   0.000000
    47  H    0.000000   0.000000   0.000000   0.000000   0.000000   0.000000
    48  H    0.000004   0.000144   0.000133   0.000000   0.000000   0.000000
             37         38         39         40         41         42
     1  O    0.000182  -0.000002   0.000000   0.000000   0.000000   0.000203
     2  O    0.000001   0.000000   0.000000   0.000000   0.000000   0.000000
     3  O    0.000000   0.004664  -0.000005   0.000000   0.000000  -0.000001
     4  O    0.000042   0.007913   0.000028   0.000000   0.000000   0.000000
     5  O    0.000000  -0.000005   0.000000   0.000000   0.000000   0.000000
     6  O    0.000000   0.000000   0.000000   0.000000   0.000001   0.000000
     7  O    0.000000   0.000000   0.000000   0.000000   0.000000   0.000000
     8  O   -0.000016   0.000324   0.000060   0.014292  -0.000035   0.003674
     9  O    0.009894   0.000000   0.000000  -0.000002   0.000000   0.000333
    10  O    0.258906   0.000326   0.000058   0.000000   0.000000   0.000000
    11  O   -0.000015   0.253986   0.264572   0.000000   0.000000   0.000000
    12  O    0.000000   0.000000   0.000000   0.256573   0.261213   0.006377
    13  O    0.000000   0.000000   0.000000   0.000171   0.000018   0.256726
    14  O    0.000000   0.000000   0.000000   0.000078   0.000066   0.001828
    15  O    0.000000   0.000000   0.000000   0.000087   0.000123   0.000361
    16  O    0.000000  -0.000001   0.000000   0.000648   0.010235  -0.000003
    17  H    0.000000   0.000000   0.000000  -0.000005  -0.000181   0.000000
    18  H   -0.000817   0.000008   0.000000  -0.000001   0.000000   0.000010
    19  H    0.000006   0.000000   0.000000  -0.000001   0.000000  -0.000785
    20  H    0.000000   0.000000   0.000000   0.000000   0.000000   0.000000
    21  H   -0.000014   0.000000   0.000000   0.000000   0.000000   0.000000
    22  H    0.000000  -0.000105   0.000001   0.000000   0.000000   0.000000
    23  H    0.000000  -0.000106   0.000000   0.000000   0.000000   0.000000
    24  H   -0.000001  -0.000113  -0.000002   0.000000   0.000000   0.000000
    25  H   -0.000179  -0.001214  -0.000006   0.000000   0.000000   0.000000
    26  H    0.000000   0.000000   0.000000   0.000000   0.000000   0.000000
    27  H    0.000000   0.000001   0.000000   0.000000   0.000000   0.000001
    28  H    0.000000   0.000000   0.000000   0.000000   0.000000   0.000000
    29  H    0.000000   0.000000   0.000000   0.000000   0.000000   0.000000
    30  H    0.000000   0.000000   0.000000   0.000000   0.000000   0.000000
    31  H    0.000000   0.000000   0.000000   0.000000   0.000000   0.000000
    32  H   -0.000004   0.000192  -0.000002  -0.000557   0.000005  -0.000282
    33  H   -0.000004  -0.000962  -0.000202  -0.000260   0.000000  -0.000036
    34  H   -0.000726   0.000000   0.000000   0.000025   0.000000   0.000151
    35  H   -0.000151   0.000000   0.000000   0.000000   0.000000  -0.000349
    36  H   -0.014200  -0.000879  -0.000260   0.000000   0.000000   0.000000
    37  H    0.277284  -0.000003  -0.000001   0.000000   0.000000   0.000000
    38  H   -0.000003   0.270143  -0.014638   0.000000   0.000000   0.000000
    39  H   -0.000001  -0.014638   0.303677   0.000000   0.000000   0.000000
    40  H    0.000000   0.000000   0.000000   0.276622  -0.015626  -0.000279
    41  H    0.000000   0.000000   0.000000  -0.015626   0.273890  -0.000154
    42  H    0.000000   0.000000   0.000000  -0.000279  -0.000154   0.281251
    43  H    0.000000   0.000000   0.000000  -0.000005   0.000001  -0.016847
    44  H    0.000000   0.000000   0.000000  -0.000011   0.000009   0.000162
    45  H    0.000000   0.000000   0.000000  -0.000337  -0.000111   0.000192
    46  H    0.000000   0.000000   0.000000  -0.000347  -0.000517   0.000341
    47  H    0.000000   0.000000   0.000000  -0.000001  -0.000003   0.000003
    48  H    0.000000   0.000024   0.000000   0.000026  -0.000307   0.000000
             43         44         45         46         47         48
     1  O    0.000065   0.000059  -0.000005   0.000000   0.000000   0.000000
     2  O    0.000000   0.000000   0.000000   0.000000   0.000000   0.000000
     3  O    0.000000   0.000037   0.000183   0.000000   0.000000   0.008505
     4  O    0.000000   0.000000   0.000000   0.000000   0.000000   0.000000
     5  O    0.000000   0.000022   0.000012   0.000000   0.000000   0.000000
     6  O    0.000000   0.000000   0.000005   0.000000   0.000000   0.002067
     7  O    0.000000   0.000048   0.000127   0.000000   0.000000  -0.000011
     8  O    0.000014   0.000032   0.000833  -0.000002   0.000000   0.001339
     9  O    0.000080   0.000000   0.000000   0.000000   0.000000   0.000000
    10  O    0.000000   0.000000   0.000000   0.000000   0.000000   0.000000
    11  O    0.000000   0.000000   0.000000   0.000000   0.000000   0.000015
    12  O   -0.000038   0.000028   0.008601   0.012655   0.000034   0.000172
    13  O    0.261958   0.001843  -0.000037   0.000378   0.000075   0.000000
    14  O    0.000024   0.258803   0.250302   0.000275   0.000062   0.000226
    15  O    0.010653   0.012141   0.000360   0.254466   0.263503   0.000000
    16  O    0.000000  -0.000016   0.013231  -0.000001   0.000000   0.260125
    17  H    0.000000  -0.000001  -0.000232   0.000000   0.000000  -0.017132
    18  H    0.000004  -0.000001   0.000000   0.000000   0.000000   0.000000
    19  H   -0.000286   0.000069  -0.000012   0.000000   0.000000   0.000000
    20  H    0.000000   0.000000   0.000000   0.000000   0.000000   0.000000
    21  H    0.000000   0.000000   0.000000   0.000000   0.000000   0.000000
    22  H    0.000000  -0.000001   0.000003   0.000000   0.000000  -0.000102
    23  H    0.000000  -0.000026  -0.000472   0.000000   0.000000  -0.001088
    24  H    0.000000   0.000000   0.000000   0.000000   0.000000   0.000000
    25  H    0.000000   0.000000   0.000000   0.000000   0.000000   0.000000
    26  H    0.000000   0.000000   0.000000   0.000000   0.000000   0.000000
    27  H    0.000000  -0.000103  -0.000062   0.000000   0.000000   0.000000
    28  H    0.000000   0.000000   0.000001   0.000000   0.000000   0.000190
    29  H    0.000000   0.000000   0.000004   0.000000   0.000000  -0.000062
    30  H    0.000000   0.000001   0.000000   0.000000   0.000000   0.000000
    31  H    0.000000  -0.000203  -0.000376   0.000000   0.000000   0.000004
    32  H    0.000000  -0.000126  -0.000689   0.000000   0.000000   0.000144
    33  H   -0.000001   0.000001  -0.000001   0.000000   0.000000   0.000133
    34  H    0.000000  -0.000001   0.000000   0.000000   0.000000   0.000000
    35  H   -0.000048   0.000000   0.000000   0.000000   0.000000   0.000000
    36  H    0.000000   0.000000   0.000000   0.000000   0.000000   0.000000
    37  H    0.000000   0.000000   0.000000   0.000000   0.000000   0.000000
    38  H    0.000000   0.000000   0.000000   0.000000   0.000000   0.000024
    39  H    0.000000   0.000000   0.000000   0.000000   0.000000   0.000000
    40  H   -0.000005  -0.000011  -0.000337  -0.000347  -0.000001   0.000026
    41  H    0.000001   0.000009  -0.000111  -0.000517  -0.000003  -0.000307
    42  H   -0.016847   0.000162   0.000192   0.000341   0.000003   0.000000
    43  H    0.279702   0.000099  -0.000011  -0.000639  -0.000131   0.000000
    44  H    0.000099   0.278776  -0.015182  -0.000841  -0.000207  -0.000001
    45  H   -0.000011  -0.015182   0.276710   0.000142   0.000005  -0.000736
    46  H   -0.000639  -0.000841   0.000142   0.273891  -0.014069   0.000000
    47  H   -0.000131  -0.000207   0.000005  -0.014069   0.305392   0.000000
    48  H    0.000000  -0.000001  -0.000736   0.000000   0.000000   0.279071
 Mulliken atomic charges:
              1
     1  O   -0.952867
     2  O   -0.913358
     3  O   -0.959433
     4  O   -0.934012
     5  O   -0.942856
     6  O   -0.921632
     7  O   -0.925098
     8  O   -0.949950
     9  O   -0.924636
    10  O   -0.925912
    11  O   -0.912096
    12  O   -0.936272
    13  O   -0.928854
    14  O   -0.938216
    15  O   -0.911106
    16  O   -0.936298
    17  H    0.469034
    18  H    0.473024
    19  H    0.467059
    20  H    0.443779
    21  H    0.475030
    22  H    0.474837
    23  H    0.481640
    24  H    0.463546
    25  H    0.471573
    26  H    0.461159
    27  H    0.472091
    28  H    0.450027
    29  H    0.464781
    30  H    0.464583
    31  H    0.459745
    32  H    0.475457
    33  H    0.473147
    34  H    0.463824
    35  H    0.459331
    36  H    0.459989
    37  H    0.469816
    38  H    0.480447
    39  H    0.446721
    40  H    0.468909
    41  H    0.471374
    42  H    0.467124
    43  H    0.465403
    44  H    0.464590
    45  H    0.467550
    46  H    0.474269
    47  H    0.445339
    48  H    0.467398
 Sum of Mulliken atomic charges =   0.00000
 Mulliken charges with hydrogens summed into heavy atoms:
              1
     1  O   -0.012785
     2  O    0.005451
     3  O   -0.002955
     4  O    0.001106
     5  O   -0.009606
     6  O   -0.006824
     7  O   -0.000770
     8  O   -0.001346
     9  O   -0.001482
    10  O    0.003893
    11  O    0.015073
    12  O    0.004011
    13  O    0.003674
    14  O   -0.006076
    15  O    0.008501
    16  O    0.000135
 Sum of Mulliken charges with hydrogens summed into heavy atoms =   0.00000
 Electronic spatial extent (au):  <R**2>=           8401.7333
 Charge=              0.0000 electrons
 Dipole moment (field-independent basis, Debye):
    X=              1.2935    Y=             -0.0117    Z=             -3.1014  Tot=              3.3604
 Quadrupole moment (field-independent basis, Debye-Ang):
   XX=            -92.4140   YY=            -88.2150   ZZ=            -95.8073
   XY=             17.7992   XZ=              4.5644   YZ=            -18.9937
 Traceless Quadrupole moment (field-independent basis, Debye-Ang):
   XX=             -0.2686   YY=              3.9304   ZZ=             -3.6618
   XY=             17.7992   XZ=              4.5644   YZ=            -18.9937
 Octapole moment (field-independent basis, Debye-Ang**2):
  XXX=            -81.1075  YYY=            -53.0145  ZZZ=             29.5001  XYY=             58.8735
  XXY=            -38.6491  XXZ=              1.4909  XZZ=            -19.2966  YZZ=            -83.4359
  YYZ=            -33.0244  XYZ=            -52.2043
 Hexadecapole moment (field-independent basis, Debye-Ang**3):
 XXXX=          -2683.6671 YYYY=          -3037.2318 ZZZZ=          -2567.2268 XXXY=           -134.6126
 XXXZ=            335.8395 YYYX=            124.1112 YYYZ=           -651.9356 ZZZX=            317.5386
 ZZZY=           -517.0071 XXYY=           -852.8784 XXZZ=           -763.1831 YYZZ=           -861.5496
 XXYZ=            -88.5978 YYXZ=             59.9123 ZZXY=             78.9695
 N-N= 1.513489273129D+03 E-N=-5.914657283357D+03  KE= 1.212552594815D+03
 1\1\GINC-QTPCLNT135\SP\RHF\6-31G(d)\H32O16\MIAO\14-Oct-2011\0\\#hf/6-3
 1g* geom=connectivity nosymm\\Water16 modeled by HyperChem and optimiz
 ed by amber94 force feld\\0,1\O,0,-0.564282,-0.573389,-2.52729\O,0,-3.
 559032,-1.843467,-2.145618\O,0,-0.780634,0.549622,1.559678\O,0,-2.3520
 54,-2.187566,0.721791\O,0,-2.787945,1.065148,-0.801006\O,0,-0.743852,3
 .06647,3.696188\O,0,-2.29861,3.527736,1.00714\O,0,1.900072,-0.30397,-0
 .164006\O,0,2.287796,-2.178609,-2.79388\O,0,0.017154,-3.564946,-1.1306
 39\O,0,0.672636,-2.500629,1.90954\O,0,3.708764,2.344338,-0.263127\O,0,
 2.319057,0.886153,-3.216717\O,0,0.33891,2.593537,-0.753703\O,0,2.57209
 4,3.995314,-2.728268\O,0,1.887855,2.390519,2.224219\H,0,1.534061,3.001
 1,2.879735\H,0,-0.080858,-1.335857,-2.192111\H,0,0.119062,-0.063496,-2
 .973049\H,0,-3.976867,-2.377445,-2.823766\H,0,-2.661798,-1.718761,-2.4
 74039\H,0,-1.538516,-0.014361,1.370546\H,0,-0.951282,1.322831,1.010301
 \H,0,-3.196693,-2.026671,0.291598\H,0,-1.889702,-2.743454,0.085772\H,0
 ,-3.363079,0.3723,-1.138435\H,0,-1.995432,0.973197,-1.341287\H,0,-1.14
 2793,2.220454,3.479019\H,0,-1.26791,3.692487,3.186715\H,0,-3.012998,2.
 988911,0.653722\H,0,-1.686213,3.587875,0.268187\H,0,1.03415,0.118481,-
 0.148631\H,0,1.855278,-0.91235,0.581306\H,0,2.60437,-1.650842,-2.05460
 5\H,0,2.444322,-1.605606,-3.550011\H,0,0.548169,-3.517187,-0.329719\H,
 0,0.670232,-3.709525,-1.823086\H,0,-0.172069,-2.038118,1.860625\H,0,0.
 64313,-2.928864,2.767014\H,0,3.612301,1.40626,-0.070951\H,0,3.61979,2.
 747259,0.60691\H,0,2.549622,1.076628,-2.301441\H,0,2.41755,1.73966,-3.
 649251\H,0,0.667371,2.957257,-1.581703\H,0,1.077078,2.72184,-0.148154\
 H,0,3.260415,3.807675,-2.080215\H,0,2.756504,4.895549,-3.003656\H,0,1.
 316135,1.622226,2.321722\\Version=EM64M-G09RevA.02\HF=-1216.3618677\RM
 SD=4.804e-09\Dipole=0.5088905,-0.0045864,-1.2201957\Quadrupole=-0.1996
 687,2.9221575,-2.7224888,13.2332765,3.3934971,-14.1213861\PG=C01 [X(H3
 2O16)]\\@


 SUCCESS-- IF YOU HAVE TRIED TO DO SOMETHING AND FAILED
           YOU ARE BETTER OFF THAN IF YOU HAD TRIED TO DO
           NOTHING AND SUCCEEDED.

                   -- FROM THE BACK OF A SUGAR PACKET
 Job cpu time:  0 days  0 hours  1 minutes 26.1 seconds.
 File lengths (MBytes):  RWF=     54 Int=      0 D2E=      0 Chk=      4 Scr=      1
 Normal termination of Gaussian 09 at Fri Oct 14 13:08:58 2011.
