 Entering Gaussian System, Link 0=g09
 Input=water16.gjf
 Output=water16.log
 Initial command:
 /Users/miao/Workspace/g09/l1.exe /Users/miao/Workspace/new_quick/example/Gau-28398.inp -scrdir=/Users/miao/Workspace/new_quick/example/
 Entering Link 1 = /Users/miao/Workspace/g09/l1.exe PID=     28399.
  
 Copyright (c) 1988,1990,1992,1993,1995,1998,2003,2009, Gaussian, Inc.
                  All Rights Reserved.
  
 This is part of the Gaussian(R) 09 program.  It is based on
 the Gaussian(R) 03 system (copyright 2003, Gaussian, Inc.),
 the Gaussian(R) 98 system (copyright 1998, Gaussian, Inc.),
 the Gaussian(R) 94 system (copyright 1995, Gaussian, Inc.),
 the Gaussian 92(TM) system (copyright 1992, Gaussian, Inc.),
 the Gaussian 90(TM) system (copyright 1990, Gaussian, Inc.),
 the Gaussian 88(TM) system (copyright 1988, Gaussian, Inc.),
 the Gaussian 86(TM) system (copyright 1986, Carnegie Mellon
 University), and the Gaussian 82(TM) system (copyright 1983,
 Carnegie Mellon University). Gaussian is a federally registered
 trademark of Gaussian, Inc.
  
 This software contains proprietary and confidential information,
 including trade secrets, belonging to Gaussian, Inc.
  
 This software is provided under written license and may be
 used, copied, transmitted, or stored only in accord with that
 written license.
  
 The following legend is applicable only to US Government
 contracts under FAR:
  
                    RESTRICTED RIGHTS LEGEND
  
 Use, reproduction and disclosure by the US Government is
 subject to restrictions as set forth in subparagraphs (a)
 and (c) of the Commercial Computer Software - Restricted
 Rights clause in FAR 52.227-19.
  
 Gaussian, Inc.
 340 Quinnipiac St., Bldg. 40, Wallingford CT 06492
  
  
 ---------------------------------------------------------------
 Warning -- This program may not be used in any manner that
 competes with the business of Gaussian, Inc. or will provide
 assistance to any competitor of Gaussian, Inc.  The licensee
 of this program is prohibited from giving any competitor of
 Gaussian, Inc. access to this program.  By using this program,
 the user acknowledges that Gaussian, Inc. is engaged in the
 business of creating and licensing software in the field of
 computational chemistry and represents and warrants to the
 licensee that it is not a competitor of Gaussian, Inc. and that
 it will not use this program in any manner prohibited above.
 ---------------------------------------------------------------
  

 Cite this work as:
 Gaussian 09, Revision A.02,
 M. J. Frisch, G. W. Trucks, H. B. Schlegel, G. E. Scuseria, 
 M. A. Robb, J. R. Cheeseman, G. Scalmani, V. Barone, B. Mennucci, 
 G. A. Petersson, H. Nakatsuji, M. Caricato, X. Li, H. P. Hratchian, 
 A. F. Izmaylov, J. Bloino, G. Zheng, J. L. Sonnenberg, M. Hada, 
 M. Ehara, K. Toyota, R. Fukuda, J. Hasegawa, M. Ishida, T. Nakajima, 
 Y. Honda, O. Kitao, H. Nakai, T. Vreven, J. A. Montgomery, Jr., 
 J. E. Peralta, F. Ogliaro, M. Bearpark, J. J. Heyd, E. Brothers, 
 K. N. Kudin, V. N. Staroverov, R. Kobayashi, J. Normand, 
 K. Raghavachari, A. Rendell, J. C. Burant, S. S. Iyengar, J. Tomasi, 
 M. Cossi, N. Rega, J. M. Millam, M. Klene, J. E. Knox, J. B. Cross, 
 V. Bakken, C. Adamo, J. Jaramillo, R. Gomperts, R. E. Stratmann, 
 O. Yazyev, A. J. Austin, R. Cammi, C. Pomelli, J. W. Ochterski, 
 R. L. Martin, K. Morokuma, V. G. Zakrzewski, G. A. Voth, 
 P. Salvador, J. J. Dannenberg, S. Dapprich, A. D. Daniels, 
 O. Farkas, J. B. Foresman, J. V. Ortiz, J. Cioslowski, 
 and D. J. Fox, Gaussian, Inc., Wallingford CT, 2009.
 
 ******************************************
 Gaussian 09:  EM64M-G09RevA.02 11-Jun-2009
                20-Jul-2010 
 ******************************************
 %chk=AB
 %mem=125MW
 %nproc=1
 Will use up to    1 processors via shared memory.
 ----------------------------------------
 #hf/6-31g geom=connectivity nosymm polar
 ----------------------------------------
 1/38=1,57=2/1;
 2/12=2,15=1,17=6,18=5,40=1/2;
 3/5=1,6=6,11=9,16=1,25=1,30=1/1,2,3;
 4//1;
 5/5=2,38=5,98=1/2;
 8/6=4,10=90,11=11/1;
 10/6=1,13=10,31=1/2;
 6/7=2,8=2,9=2,10=2,28=1/1;
 99/5=1,9=1/99;
 ----------------------------------------------------------------
 Water16 modeled by HyperChem and optimized by amber94 force feld
 ----------------------------------------------------------------
 Symbolic Z-matrix:
 Charge =  0 Multiplicity = 1
 O                    -0.56428  -0.57339  -2.52729 
 O                    -3.55903  -1.84347  -2.14562 
 O                    -0.78063   0.54962   1.55968 
 O                    -2.35205  -2.18757   0.72179 
 O                    -2.78795   1.06515  -0.80101 
 O                    -0.74385   3.06647   3.69619 
 O                    -2.29861   3.52774   1.00714 
 O                     1.90007  -0.30397  -0.16401 
 O                     2.2878   -2.17861  -2.79388 
 O                     0.01715  -3.56495  -1.13064 
 O                     0.67264  -2.50063   1.90954 
 O                     3.70876   2.34434  -0.26313 
 O                     2.31906   0.88615  -3.21672 
 O                     0.33891   2.59354  -0.7537 
 O                     2.57209   3.99531  -2.72827 
 O                     1.88786   2.39052   2.22422 
 H                     1.53406   3.0011    2.87974 
 H                    -0.08086  -1.33586  -2.19211 
 H                     0.11906  -0.0635   -2.97305 
 H                    -3.97687  -2.37745  -2.82377 
 H                    -2.6618   -1.71876  -2.47404 
 H                    -1.53852  -0.01436   1.37055 
 H                    -0.95128   1.32283   1.0103 
 H                    -3.19669  -2.02667   0.2916 
 H                    -1.8897   -2.74345   0.08577 
 H                    -3.36308   0.3723   -1.13844 
 H                    -1.99543   0.9732   -1.34129 
 H                    -1.14279   2.22045   3.47902 
 H                    -1.26791   3.69249   3.18671 
 H                    -3.013     2.98891   0.65372 
 H                    -1.68621   3.58788   0.26819 
 H                     1.03415   0.11848  -0.14863 
 H                     1.85528  -0.91235   0.58131 
 H                     2.60437  -1.65084  -2.05461 
 H                     2.44432  -1.60561  -3.55001 
 H                     0.54817  -3.51719  -0.32972 
 H                     0.67023  -3.70953  -1.82309 
 H                    -0.17207  -2.03812   1.86063 
 H                     0.64313  -2.92886   2.76701 
 H                     3.6123    1.40626  -0.07095 
 H                     3.61979   2.74726   0.60691 
 H                     2.54962   1.07663  -2.30144 
 H                     2.41755   1.73966  -3.64925 
 H                     0.66737   2.95726  -1.5817 
 H                     1.07708   2.72184  -0.14815 
 H                     3.26042   3.80768  -2.08021 
 H                     2.7565    4.89555  -3.00366 
 H                     1.31614   1.62223   2.32172 
 
                          Input orientation:                          
 ---------------------------------------------------------------------
 Center     Atomic      Atomic             Coordinates (Angstroms)
 Number     Number       Type             X           Y           Z
 ---------------------------------------------------------------------
      1          8           0       -0.564282   -0.573389   -2.527290
      2          8           0       -3.559032   -1.843467   -2.145618
      3          8           0       -0.780634    0.549622    1.559678
      4          8           0       -2.352054   -2.187566    0.721791
      5          8           0       -2.787945    1.065148   -0.801006
      6          8           0       -0.743852    3.066470    3.696188
      7          8           0       -2.298610    3.527736    1.007140
      8          8           0        1.900072   -0.303970   -0.164006
      9          8           0        2.287796   -2.178609   -2.793880
     10          8           0        0.017154   -3.564946   -1.130639
     11          8           0        0.672636   -2.500629    1.909540
     12          8           0        3.708764    2.344338   -0.263127
     13          8           0        2.319057    0.886153   -3.216717
     14          8           0        0.338910    2.593537   -0.753703
     15          8           0        2.572094    3.995314   -2.728268
     16          8           0        1.887855    2.390519    2.224219
     17          1           0        1.534061    3.001100    2.879735
     18          1           0       -0.080858   -1.335857   -2.192111
     19          1           0        0.119062   -0.063496   -2.973049
     20          1           0       -3.976867   -2.377445   -2.823766
     21          1           0       -2.661798   -1.718761   -2.474039
     22          1           0       -1.538516   -0.014361    1.370546
     23          1           0       -0.951282    1.322831    1.010301
     24          1           0       -3.196693   -2.026671    0.291598
     25          1           0       -1.889702   -2.743454    0.085772
     26          1           0       -3.363079    0.372300   -1.138435
     27          1           0       -1.995432    0.973197   -1.341287
     28          1           0       -1.142793    2.220454    3.479019
     29          1           0       -1.267910    3.692487    3.186715
     30          1           0       -3.012998    2.988911    0.653722
     31          1           0       -1.686213    3.587875    0.268187
     32          1           0        1.034150    0.118481   -0.148631
     33          1           0        1.855278   -0.912350    0.581306
     34          1           0        2.604370   -1.650842   -2.054605
     35          1           0        2.444322   -1.605606   -3.550011
     36          1           0        0.548169   -3.517187   -0.329719
     37          1           0        0.670232   -3.709525   -1.823086
     38          1           0       -0.172069   -2.038118    1.860625
     39          1           0        0.643130   -2.928864    2.767014
     40          1           0        3.612301    1.406260   -0.070951
     41          1           0        3.619790    2.747259    0.606910
     42          1           0        2.549622    1.076628   -2.301441
     43          1           0        2.417550    1.739660   -3.649251
     44          1           0        0.667371    2.957257   -1.581703
     45          1           0        1.077078    2.721840   -0.148154
     46          1           0        3.260415    3.807675   -2.080215
     47          1           0        2.756504    4.895549   -3.003656
     48          1           0        1.316135    1.622226    2.321722
 ---------------------------------------------------------------------
                    Distance matrix (angstroms):
                    1          2          3          4          5
     1  O    0.000000
     2  O    3.275256   0.000000
     3  O    4.243969   5.213021   0.000000
     4  O    4.044530   3.130053   3.265519   0.000000
     5  O    3.257228   3.295846   3.141320   3.617881   0.000000
     6  O    7.211969   8.133844   3.301598   6.248059   5.329949
     7  O    5.685008   6.354398   3.388025   5.722670   3.094056
     8  O    3.425017   6.008216   3.299377   4.734252   4.925216
     9  O    3.283618   5.892195   5.984311   5.821360   6.344813
    10  O    3.352330   4.096679   4.980356   3.307842   5.423561
    11  O    4.992963   5.897727   3.396826   3.264584   5.660163
    12  O    5.647875   8.596647   5.167042   7.631627   6.643257
    13  O    3.304424   6.568867   5.703971   6.839508   5.652360
    14  O    3.740426   6.067815   3.283702   5.681313   3.480723
    15  O    5.545295   8.486551   6.442054   8.624277   6.405484
    16  O    6.113474   8.166437   3.309282   6.418176   5.724657
    17  H    6.812924   8.640810   3.620788   6.832340   5.997958
    18  H    0.963017   3.515327   4.256834   3.791380   3.876637
    19  H    0.962108   4.169090   4.661650   4.926452   3.800302
    20  H    3.871466   0.958959   6.164269   3.904747   4.166118
    21  H    2.390457   0.963556   4.995519   3.244850   3.250400
    22  H    4.056448   4.448766   0.963448   2.409470   2.728012
    23  H    4.032365   5.175483   0.963736   3.790552   2.592405
    24  H    4.121619   2.470805   3.752686   0.961441   3.304573
    25  H    3.646096   2.928437   3.774491   0.962965   4.012314
    26  H    3.264431   2.441811   3.739021   3.321976   0.961601
    27  H    2.418000   3.320450   3.173444   3.791292   0.963554
    28  H    6.649510   7.347803   2.570352   5.338095   4.728623
    29  H    7.165378   8.020586   3.572434   6.467321   5.011520
    30  H    5.367032   5.611269   3.428460   5.218946   2.422343
    31  H    5.137075   6.231644   3.423303   5.831365   2.953157
    32  H    2.948167   5.379082   2.529356   4.188301   3.991263
    33  H    3.953800   6.133339   3.169007   4.398586   5.232667
    34  H    3.380043   6.167083   5.418795   5.706364   6.166455
    35  H    3.341127   6.170021   6.415159   6.449201   6.485875
    36  H    3.838335   4.792487   4.677015   3.359294   5.687668
    37  H    3.443149   4.633883   5.629248   4.234025   5.983405
    38  H    4.642527   5.249704   2.675317   2.464064   4.853591
    39  H    5.919101   6.555166   3.947737   3.701836   6.360438
    40  H    5.234162   8.142050   4.763471   7.008392   6.450774
    41  H    6.193252   8.954700   5.010100   7.747814   6.772798
    42  H    3.531283   6.772510   5.126069   6.619768   5.544462
    43  H    3.937044   7.128762   6.227159   7.568239   5.971988
    44  H    3.857015   6.420859   4.214463   6.394702   4.016064
    45  H    4.383250   6.806277   3.329612   6.051282   4.255496
    46  H    5.832830   8.856892   6.339859   8.677209   6.763171
    47  H    6.415904   9.275590   7.226510   9.494569   7.089750
    48  H    5.645318   7.465615   2.475405   5.525387   5.187026
                    6          7          8          9         10
     6  O    0.000000
     7  O    3.140226   0.000000
     8  O    5.766394   5.803661   0.000000
     9  O    8.878216   8.248954   3.252820   0.000000
    10  O    8.237297   7.761379   3.887637   3.137533   0.000000
    11  O    6.015907   6.781137   3.260599   4.983432   3.287114
    12  O    6.001953   6.253203   3.208540   5.374096   7.021410
    13  O    7.869145   6.792774   3.303178   3.093951   5.427961
    14  O    4.604082   3.306026   3.343728   5.543812   6.178391
    15  O    7.289162   6.155945   5.050831   6.180813   8.138653
    16  O    3.090224   4.505667   3.600561   6.798397   7.086759
    17  H    2.420693   4.298061   4.507972   7.719288   7.842007
    18  H    7.381877   6.229620   3.016966   2.585126   2.470864
    19  H    7.417549   5.880815   3.334748   3.034668   3.957905
    20  H    9.088366   7.236266   6.775842   6.267889   4.497671
    21  H    8.040439   6.306841   5.305520   4.981189   3.519930
    22  H    3.941018   3.640914   3.776587   6.055335   4.613317
    23  H    3.208940   2.583972   3.486502   6.101107   5.423270
    24  H    6.599072   5.671860   5.399286   6.294671   3.836386
    25  H    6.935654   6.351689   4.513963   5.105187   2.406368
    26  H    6.123110   3.961485   5.395147   6.417166   5.189214
    27  H    5.596820   3.483202   4.265220   5.512708   4.968865
    28  H    0.960239   3.025737   5.376186   8.394639   7.487675
    29  H    0.962339   2.416616   6.102058   9.103863   8.541737
    30  H    3.796266   0.962074   5.970762   8.166250   7.437661
    31  H    3.593202   0.961612   5.309867   7.643385   7.484719
    32  H    5.160868   4.905723   0.963599   3.720967   3.945409
    33  H    5.682339   6.095120   0.963132   3.630753   3.653180
    34  H    8.156914   7.760874   2.425792   0.961917   3.348312
    35  H    9.192396   8.343514   3.668173   0.961544   3.947597
    36  H    7.824435   7.715069   3.489966   3.300028   0.962149
    37  H    8.853029   8.318783   3.982820   2.429539   0.962755
    38  H    5.454635   6.019082   3.376414   5.266412   3.363728
    39  H    6.223433   7.310176   4.130478   5.847337   3.998518
    40  H    5.993638   6.371955   2.421833   4.692541   6.225826
    41  H    5.356016   5.983042   3.586327   6.132190   7.472750
    42  H    7.125868   6.360817   2.626137   3.302668   5.415568
    43  H    8.106193   6.864500   4.073222   4.012646   6.343828
    44  H    5.464395   3.978014   3.763644   5.520169   6.570036
    45  H    4.267730   3.657792   3.135777   5.699132   6.450767
    46  H    7.067558   6.364973   4.735822   6.106628   8.110239
    47  H    7.777270   6.596330   5.985991   7.092771   9.088025
    48  H    2.866800   4.292491   3.198446   6.446693   6.364975
                   11         12         13         14         15
    11  O    0.000000
    12  O    6.116556   0.000000
    13  O    6.360779   3.575092   0.000000
    14  O    5.758017   3.414481   3.592016   0.000000
    15  O    8.204540   3.177210   3.157450   3.294085   0.000000
    16  O    5.049664   3.082975   5.661522   3.362806   5.250779
    17  H    5.652641   3.877918   6.500457   3.846604   5.789272
    18  H    4.329895   5.623704   3.427351   4.205397   5.978880
    19  H    5.485047   5.101696   2.408565   3.468956   4.748813
    20  H    6.636056   9.376621   7.102404   6.900852   9.138384
    21  H    5.562871   7.872799   5.669750   5.528085   7.752994
    22  H    3.370643   5.980493   6.060922   3.852051   7.055132
    23  H    4.250246   4.937725   5.362228   2.528043   5.790789
    24  H    4.220673   8.191384   7.156558   5.910961   8.869205
    25  H    3.154468   7.572990   6.464838   5.844220   8.557888
    26  H    5.816431   7.393650   6.072065   4.334355   7.133027
    27  H    5.454716   5.964923   4.705277   2.901708   5.649708
    28  H    5.296005   6.128345   7.654910   4.500063   7.448552
    29  H    6.614498   6.203725   7.857849   4.395049   7.058637
    30  H    6.730232   6.814556   6.916119   3.656836   6.606357
    31  H    6.732614   5.561875   5.957016   2.476710   5.222828
    32  H    3.350597   3.481538   3.413716   2.641093   4.904043
    33  H    2.384424   3.841158   4.227846   4.046340   5.962573
    34  H    4.490900   4.515589   2.805040   4.983915   5.686294
    35  H    5.809185   5.291926   2.517070   5.466708   5.662322
    36  H    2.462349   6.659675   5.555196   6.128988   8.141682
    37  H    3.923510   6.950928   5.077508   6.401714   7.987551
    38  H    0.964280   6.227127   6.366826   5.343036   8.061679
    39  H    0.958915   6.810765   7.291647   6.556288   9.047832
    40  H    5.275202   0.962407   3.440761   3.548361   3.853124
    41  H    6.158156   0.962926   4.446993   3.555147   3.711970
    42  H    5.835427   2.665600   0.962897   3.095764   2.949816
    43  H    7.205896   3.674058   0.961905   3.665249   2.441325
    44  H    6.478991   3.371110   3.113006   0.962166   2.453598
    45  H    5.627776   2.661108   3.785279   0.963350   3.242499
    46  H    7.899965   2.375748   3.273085   3.430591   0.963829
    47  H    9.120606   3.863415   4.038813   4.025706   0.959306
    48  H    4.193080   3.595492   5.676439   3.369963   5.719386
                   16         17         18         19         20
    16  O    0.000000
    17  H    0.963162   0.000000
    18  H    6.104562   6.865914   0.000000
    19  H    6.013519   6.756408   1.506232   0.000000
    20  H    9.089037   9.582745   4.082007   4.706727   0.000000
    21  H    7.723934   8.279204   2.624376   3.274461   1.511814
    22  H    4.272262   4.561950   4.069846   4.649387   5.396478
    23  H    3.267148   3.533879   4.252259   4.351392   6.127502
    24  H    7.007084   7.372718   4.044065   5.050367   3.230667
    25  H    6.723137   7.247640   3.231408   4.535823   3.599393
    26  H    6.553851   6.858444   3.847208   3.959928   3.283013
    27  H    5.459080   5.864021   3.117888   2.865042   4.165409
    28  H    3.284551   2.852034   6.777667   6.959733   8.300467
    29  H    3.546882   2.902291   7.458224   7.346686   8.961496
    30  H    5.181013   5.062710   5.949776   5.681589   6.466819
    31  H    4.246609   4.187440   5.733530   5.205491   7.098754
    32  H    3.394317   4.210749   2.744841   2.974532   6.204537
    33  H    3.689061   4.549840   3.408786   4.045793   6.910494
    34  H    5.929108   6.865409   2.707134   3.088683   6.665751
    35  H    7.044175   7.961906   2.879790   2.849179   6.508059
    36  H    6.574066   7.332165   2.936389   4.370275   5.291052
    37  H    7.421174   8.239855   2.516866   3.862607   4.936732
    38  H    4.897787   5.416935   4.114141   5.229560   6.044431
    39  H    5.489973   5.997578   5.258778   6.436871   7.273600
    40  H    3.034845   3.945775   5.065368   4.773371   8.915710
    41  H    2.396362   3.095228   6.180708   5.742086   9.784750
    42  H    4.758765   5.619568   3.570919   2.767411   7.402601
    43  H    5.933114   6.708162   4.221860   2.998611   7.649872
    44  H    4.036808   4.545053   4.400372   3.370673   7.181275
    45  H    2.528890   3.074887   4.688654   4.081167   7.661851
    46  H    4.735019   5.313376   6.134537   5.064703   9.549179
    47  H    5.861775   6.300603   6.894900   5.616864   9.912976
    48  H    0.962624   1.503384   5.574633   5.684122   8.395790
                   21         22         23         24         25
    21  H    0.000000
    22  H    4.352881   0.000000
    23  H    4.931305   1.504228   0.000000
    24  H    2.833667   2.821891   4.096043   0.000000
    25  H    2.863348   3.036762   4.274349   1.504782   0.000000
    26  H    2.578404   3.126263   3.367097   2.797810   3.657519
    27  H    2.995632   2.922000   2.596625   3.620573   3.982609
    28  H    7.298198   3.097847   2.633813   5.693525   6.059074
    29  H    7.954160   4.136716   3.233002   6.694078   7.171040
    30  H    5.662897   3.421634   2.674630   5.031992   5.868933
    31  H    6.052434   3.770028   2.494250   5.814226   6.337224
    32  H    4.737406   2.990678   2.595289   4.763981   4.098113
    33  H    5.512659   3.598211   3.613426   5.181511   4.198020
    34  H    5.283281   5.619006   5.556891   6.268831   5.096244
    35  H    5.219481   6.527399   6.395492   6.837858   5.770388
    36  H    4.258677   4.417572   5.241162   4.078194   2.591237
    37  H    3.935645   5.360232   5.998500   4.717732   3.336210
    38  H    5.008997   2.490572   3.553337   3.407393   2.568631
    39  H    6.313124   3.899235   4.868788   4.656810   3.693057
    40  H    7.409785   5.534166   4.690667   7.634059   6.893238
    41  H    8.300357   5.900661   4.804833   8.327921   7.795769
    42  H    5.916324   5.602376   4.825410   7.026696   6.324509
    43  H    6.256323   6.627625   5.764911   7.825296   7.252663
    44  H    5.809025   4.734155   3.465526   6.578737   6.466622
    45  H    6.253629   4.078551   2.722772   6.403660   6.223017
    46  H    8.109821   7.038853   5.784819   9.019941   8.610023
    47  H    8.566656   7.854174   6.528694   9.706512   9.459713
    48  H    7.070040   3.425228   2.636407   6.148290   5.859695
                   26         27         28         29         30
    26  H    0.000000
    27  H    1.507543   0.000000
    28  H    5.446671   5.051534   0.000000
    29  H    5.841258   5.331663   1.505980   0.000000
    30  H    3.190774   3.013072   3.474262   3.155377   0.000000
    31  H    3.889780   3.085865   3.531938   2.950208   1.505906
    32  H    4.514395   3.366205   4.724110   5.403474   5.026186
    33  H    5.642613   4.698895   5.215327   6.143857   6.239006
    34  H    6.367332   5.343462   7.723287   8.427168   7.772848
    35  H    6.591943   5.589285   8.770028   9.339911   8.280296
    36  H    5.574943   5.258966   7.091288   8.224527   7.481870
    37  H    5.779069   5.409786   8.158678   9.145725   8.035534
    38  H    4.998702   4.758667   4.657997   5.983245   5.899026
    39  H    6.496147   6.250298   5.496540   6.904384   7.270030
    40  H    7.131937   5.766105   5.989668   6.297276   6.850148
    41  H    7.579388   6.202700   5.586477   5.607001   6.637354
    42  H    6.067017   4.646516   6.953847   7.178867   6.582747
    43  H    6.448995   5.038708   7.982446   8.007907   7.040388
    44  H    4.808640   3.329386   5.424987   5.198431   4.306187
    45  H    5.120155   3.731171   4.282009   4.190761   4.176488
    46  H    7.520600   6.016993   7.267227   6.946909   6.892060
    47  H    7.835058   6.381944   8.024072   7.480906   7.092167
    48  H    5.952314   4.980497   2.782722   3.422204   4.836470
                   31         32         33         34         35
    31  H    0.000000
    32  H    4.428409   0.000000
    33  H    5.735175   1.506543   0.000000
    34  H    7.158814   3.037899   2.838051   0.000000
    35  H    7.655861   4.065765   4.230290   1.504626   0.000000
    36  H    7.472072   3.672472   3.053470   3.269012   4.197597
    37  H    7.948478   4.194027   3.874225   2.834196   3.249021
    38  H    6.039891   3.184807   2.648423   4.815353   6.025575
    39  H    7.357844   4.235587   3.211378   5.359833   6.700754
    40  H    5.740097   2.882928   2.981362   3.781095   4.747565
    41  H    5.382846   3.763888   4.062868   5.240041   6.132630
    42  H    5.554426   2.801659   3.570487   2.739164   2.960472
    43  H    5.966832   4.098336   5.024631   3.751440   3.346845
    44  H    3.059269   3.201073   4.589509   5.020974   5.277453
    45  H    2.925600   2.603713   3.787485   5.008745   5.671752
    46  H    5.480185   4.722015   5.597923   5.497859   5.668326
    47  H    5.670335   5.825637   6.884465   6.616576   6.531537
    48  H    4.134595   2.905754   3.121506   5.614692   6.794774
                   36         37         38         39         40
    36  H    0.000000
    37  H    1.510642   0.000000
    38  H    2.739342   4.131924   0.000000
    39  H    3.153553   4.656091   1.509808   0.000000
    40  H    5.804842   6.156054   5.469569   5.971878   0.000000
    41  H    7.039561   7.502988   6.232963   6.763500   1.502608
    42  H    5.384853   5.164125   5.867882   6.735571   2.492595
    43  H    6.492174   6.006797   7.164947   8.130937   3.787191
    44  H    6.595460   6.671151   6.124382   7.318357   3.655212
    45  H    6.264038   6.658331   5.315333   6.373145   2.857283
    46  H    8.004631   7.955090   7.841267   8.702113   3.150835
    47  H    9.099495   8.932725   8.961780   9.949292   4.637703
    48  H    5.833822   6.784113   3.978125   4.622082   3.323237
                   41         42         43         44         45
    41  H    0.000000
    42  H    3.520621   0.000000
    43  H    4.536027   1.507861   0.000000
    44  H    3.681155   2.756385   2.969920   0.000000
    45  H    2.652575   3.084113   3.875464   1.509418   0.000000
    46  H    2.911061   2.830686   2.729282   2.774095   3.111086
    47  H    4.289126   3.888453   3.239030   3.184871   3.962244
    48  H    3.084332   4.815891   6.072843   4.176114   2.714146
                   46         47         48
    46  H    0.000000
    47  H    1.513321   0.000000
    48  H    5.285212   6.414745   0.000000
 Symmetry turned off by external request.
 Stoichiometry    H32O16
 Framework group  C1[X(H32O16)]
 Deg. of freedom   138
 Full point group                 C1      NOp   1
 Rotational constants (GHZ):      0.2272155      0.1965936      0.1563597
 Standard basis: 6-31G (6D, 7F)
 Integral buffers will be    131072 words long.
 Raffenetti 1 integral format.
 Two-electron integral symmetry is turned off.
   208 basis functions,   480 primitive gaussians,   208 cartesian basis functions
    80 alpha electrons       80 beta electrons
       nuclear repulsion energy      1513.4892731290 Hartrees.
 NAtoms=   48 NActive=   48 NUniq=   48 SFac= 7.50D-01 NAtFMM=   80 NAOKFM=F Big=F
 One-electron integrals computed using PRISM.
 NBasis=   208 RedAO= T  NBF=   208
 NBsUse=   208 1.00D-06 NBFU=   208
 Harris functional with IExCor=  205 diagonalized for initial guess.
 ExpMin= 1.61D-01 ExpMax= 5.48D+03 ExpMxC= 8.25D+02 IAcc=1 IRadAn=         1 AccDes= 0.00D+00
 HarFok:  IExCor=  205 AccDes= 0.00D+00 IRadAn=         1 IDoV= 1
 ScaDFX=  1.000000  1.000000  1.000000  1.000000
 FoFCou: FMM=F IPFlag=           0 FMFlag=      100000 FMFlg1=           0
         NFxFlg=           0 DoJE=T BraDBF=F KetDBF=T FulRan=T
         Omega=  0.000000  0.000000  1.000000  0.000000  0.000000 ICntrl=     500 IOpCl=  0
         NMat0=    1 NMatS0=    1 NMatT0=    0 NMatD0=    1 NMtDS0=    0 NMtDT0=    0
         I1Cent=           4 NGrid=           0.
 Symmetry not used in FoFCou.
 Requested convergence on RMS density matrix=1.00D-08 within 128 cycles.
 Requested convergence on MAX density matrix=1.00D-06.
 Requested convergence on             energy=1.00D-06.
 No special actions if energy rises.
 Integral accuracy reduced to 1.0D-05 until final iterations.
 Initial convergence to 1.0D-05 achieved.  Increase integral accuracy.
 SCF Done:  E(RHF) =  -1215.98766639     A.U. after   11 cycles
             Convg  =    0.5622D-08             -V/T =  2.0006
 Range of M.O.s used for correlation:     1   208
 NBasis=   208 NAE=    80 NBE=    80 NFC=     0 NFV=     0
 NROrb=    208 NOA=    80 NOB=    80 NVA=   128 NVB=   128
          Differentiating once with respect to electric field.
                with respect to dipole field.
          Electric field/nuclear overlap derivatives assumed to be zero.
          There are     3 degrees of freedom in the 1st order CPHF.  IDoFFX=0.
      3 vectors produced by pass  0 Test12= 3.41D-13 3.33D-08 XBig12= 1.37D+01 4.86D-01.
 AX will form     3 AO Fock derivatives at one time.
      3 vectors produced by pass  1 Test12= 3.41D-13 3.33D-08 XBig12= 3.70D-01 5.15D-02.
      3 vectors produced by pass  2 Test12= 3.41D-13 3.33D-08 XBig12= 6.16D-02 1.88D-02.
      3 vectors produced by pass  3 Test12= 3.41D-13 3.33D-08 XBig12= 1.47D-03 3.57D-03.
      3 vectors produced by pass  4 Test12= 3.41D-13 3.33D-08 XBig12= 2.60D-05 4.49D-04.
      3 vectors produced by pass  5 Test12= 3.41D-13 3.33D-08 XBig12= 4.02D-06 1.71D-04.
      3 vectors produced by pass  6 Test12= 3.41D-13 3.33D-08 XBig12= 1.70D-07 4.22D-05.
      3 vectors produced by pass  7 Test12= 3.41D-13 3.33D-08 XBig12= 3.22D-09 7.51D-06.
      3 vectors produced by pass  8 Test12= 3.41D-13 3.33D-08 XBig12= 1.77D-10 1.59D-06.
      3 vectors produced by pass  9 Test12= 3.41D-13 3.33D-08 XBig12= 1.97D-11 5.57D-07.
      3 vectors produced by pass 10 Test12= 3.41D-13 3.33D-08 XBig12= 4.27D-13 9.11D-08.
 Inverted reduced A of dimension    33 with in-core refinement.
 Isotropic polarizability for W=    0.000000       73.96 Bohr**3.
 End of Minotr Frequency-dependent properties file   721 does not exist.
 End of Minotr Frequency-dependent properties file   722 does not exist.

 **********************************************************************

            Population analysis using the SCF density.

 **********************************************************************

 Alpha  occ. eigenvalues --  -20.58852 -20.57588 -20.57558 -20.56868 -20.56476
 Alpha  occ. eigenvalues --  -20.56396 -20.56354 -20.55685 -20.55407 -20.55357
 Alpha  occ. eigenvalues --  -20.55356 -20.55341 -20.55183 -20.54892 -20.54371
 Alpha  occ. eigenvalues --  -20.53511  -1.38119  -1.36877  -1.36758  -1.36147
 Alpha  occ. eigenvalues --   -1.35787  -1.35441  -1.35391  -1.35057  -1.34745
 Alpha  occ. eigenvalues --   -1.34607  -1.34438  -1.34407  -1.34258  -1.33986
 Alpha  occ. eigenvalues --   -1.33584  -1.32746  -0.73382  -0.72346  -0.72230
 Alpha  occ. eigenvalues --   -0.71612  -0.71218  -0.70493  -0.70462  -0.70275
 Alpha  occ. eigenvalues --   -0.69915  -0.69760  -0.69535  -0.69383  -0.69078
 Alpha  occ. eigenvalues --   -0.68850  -0.68754  -0.67931  -0.60327  -0.59229
 Alpha  occ. eigenvalues --   -0.58914  -0.58614  -0.58255  -0.58123  -0.57472
 Alpha  occ. eigenvalues --   -0.57369  -0.57109  -0.56793  -0.56295  -0.55785
 Alpha  occ. eigenvalues --   -0.55597  -0.55070  -0.54731  -0.53271  -0.52882
 Alpha  occ. eigenvalues --   -0.51675  -0.51564  -0.51341  -0.51148  -0.50509
 Alpha  occ. eigenvalues --   -0.50313  -0.50071  -0.49941  -0.49550  -0.49433
 Alpha  occ. eigenvalues --   -0.49281  -0.49090  -0.48873  -0.48345  -0.47438
 Alpha virt. eigenvalues --    0.14274   0.17282   0.19374   0.19852   0.21231
 Alpha virt. eigenvalues --    0.22896   0.24428   0.25712   0.26231   0.26710
 Alpha virt. eigenvalues --    0.27437   0.28102   0.29053   0.30786   0.31358
 Alpha virt. eigenvalues --    0.32091   0.33414   0.34440   0.34963   0.35450
 Alpha virt. eigenvalues --    0.35484   0.36287   0.36420   0.36879   0.36972
 Alpha virt. eigenvalues --    0.37423   0.37948   0.37999   0.39274   0.39404
 Alpha virt. eigenvalues --    0.39742   0.40741   0.98358   0.99546   1.00586
 Alpha virt. eigenvalues --    1.00840   1.01774   1.02589   1.02888   1.03638
 Alpha virt. eigenvalues --    1.04992   1.06156   1.06548   1.07720   1.08836
 Alpha virt. eigenvalues --    1.09030   1.09859   1.10534   1.11774   1.12446
 Alpha virt. eigenvalues --    1.12752   1.13551   1.14510   1.14762   1.15394
 Alpha virt. eigenvalues --    1.15620   1.16049   1.16291   1.16986   1.17274
 Alpha virt. eigenvalues --    1.17725   1.18030   1.18179   1.18551   1.19418
 Alpha virt. eigenvalues --    1.19503   1.19704   1.20231   1.20754   1.21336
 Alpha virt. eigenvalues --    1.21441   1.21921   1.22389   1.23016   1.24837
 Alpha virt. eigenvalues --    1.25747   1.26383   1.27253   1.27487   1.27950
 Alpha virt. eigenvalues --    1.28394   1.29165   1.30212   1.32386   1.33240
 Alpha virt. eigenvalues --    1.34568   1.34767   1.35277   1.36566   1.38253
 Alpha virt. eigenvalues --    1.38879   1.39543   1.41388   1.42058   1.43312
 Alpha virt. eigenvalues --    1.43789   1.43952   1.44781   1.45700   1.46743
 Alpha virt. eigenvalues --    1.47768   1.48522   1.49770   1.50954   1.51760
 Alpha virt. eigenvalues --    1.51875   1.54307   1.55543   1.57409   1.58721
 Alpha virt. eigenvalues --    1.61246   1.62517   1.73147   1.74543   1.75503
 Alpha virt. eigenvalues --    1.76210   1.77348   1.78756   1.79891   1.82217
 Alpha virt. eigenvalues --    1.84001   1.86139   1.87922   1.90275   1.91543
 Alpha virt. eigenvalues --    1.96552   2.01022   2.06557
          Condensed to atoms (all electrons):
              1          2          3          4          5          6
     1  O    8.366287  -0.001965  -0.000019  -0.000019  -0.002113   0.000000
     2  O   -0.001965   8.322661   0.000000  -0.002219  -0.001522   0.000000
     3  O   -0.000019   0.000000   8.376572  -0.002420  -0.002193  -0.001703
     4  O   -0.000019  -0.002219  -0.002420   8.343224  -0.000226   0.000000
     5  O   -0.002113  -0.001522  -0.002193  -0.000226   8.359084   0.000000
     6  O    0.000000   0.000000  -0.001703   0.000000   0.000000   8.330570
     7  O    0.000000   0.000000  -0.001485   0.000000  -0.002354  -0.002340
     8  O   -0.000733   0.000000  -0.001886  -0.000001   0.000000   0.000000
     9  O   -0.001659   0.000000   0.000000   0.000000   0.000000   0.000000
    10  O   -0.002010  -0.000036   0.000000  -0.001498   0.000000   0.000000
    11  O    0.000000   0.000000  -0.000569  -0.001129   0.000000   0.000000
    12  O    0.000000   0.000000   0.000000   0.000000   0.000000   0.000000
    13  O   -0.002268   0.000000   0.000000   0.000000   0.000000   0.000000
    14  O   -0.000114   0.000000  -0.000884   0.000000  -0.000361  -0.000002
    15  O    0.000000   0.000000   0.000000   0.000000   0.000000   0.000000
    16  O    0.000000   0.000000  -0.001115   0.000000   0.000000  -0.003421
    17  H    0.000000   0.000000  -0.000032   0.000000   0.000000   0.013447
    18  H    0.246967   0.000150  -0.000001   0.000074   0.000100   0.000000
    19  H    0.255024   0.000044  -0.000003   0.000000   0.000094   0.000000
    20  H   -0.000003   0.260336   0.000000   0.000115   0.000057   0.000000
    21  H    0.013730   0.249663  -0.000001   0.000704   0.000550   0.000000
    22  H    0.000028  -0.000003   0.250841   0.014244   0.005519   0.000045
    23  H   -0.000023   0.000000   0.244343  -0.000028   0.004418   0.000805
    24  H   -0.000001   0.008303   0.000098   0.259740   0.000813   0.000000
    25  H    0.000081   0.002269   0.000133   0.252867   0.000005   0.000000
    26  H    0.000160   0.011394   0.000112   0.000600   0.257552   0.000000
    27  H    0.013264   0.000062   0.000816   0.000051   0.254210   0.000000
    28  H    0.000000   0.000000   0.010480   0.000000  -0.000003   0.257353
    29  H    0.000000   0.000000  -0.000025   0.000000   0.000000   0.260461
    30  H    0.000000   0.000000   0.000282   0.000000   0.009659   0.000142
    31  H    0.000000   0.000000   0.000086   0.000000   0.000864   0.000241
    32  H    0.003805   0.000000   0.011585   0.000011  -0.000008   0.000000
    33  H   -0.000010   0.000000   0.000516  -0.000002   0.000000   0.000000
    34  H    0.000248   0.000000   0.000000   0.000000   0.000000   0.000000
    35  H    0.000407   0.000000   0.000000   0.000000   0.000000   0.000000
    36  H    0.000079   0.000000  -0.000002   0.000316   0.000000   0.000000
    37  H    0.000187   0.000001   0.000000   0.000045   0.000000   0.000000
    38  H   -0.000002   0.000000   0.004883   0.008528  -0.000004   0.000000
    39  H    0.000000   0.000000  -0.000006   0.000032   0.000000   0.000000
    40  H    0.000000   0.000000  -0.000001   0.000000   0.000000   0.000000
    41  H    0.000000   0.000000   0.000000   0.000000   0.000000   0.000001
    42  H    0.000225   0.000000  -0.000001   0.000000   0.000000   0.000000
    43  H    0.000075   0.000000   0.000000   0.000000   0.000000   0.000000
    44  H    0.000062   0.000000   0.000041   0.000000   0.000022   0.000000
    45  H   -0.000004   0.000000   0.000191   0.000000   0.000013   0.000003
    46  H    0.000000   0.000000   0.000000   0.000000   0.000000   0.000000
    47  H    0.000000   0.000000   0.000000   0.000000   0.000000   0.000000
    48  H    0.000000   0.000000   0.009096   0.000000   0.000000   0.002263
              7          8          9         10         11         12
     1  O    0.000000  -0.000733  -0.001659  -0.002010   0.000000   0.000000
     2  O    0.000000   0.000000   0.000000  -0.000036   0.000000   0.000000
     3  O   -0.001485  -0.001886   0.000000   0.000000  -0.000569   0.000000
     4  O    0.000000  -0.000001   0.000000  -0.001498  -0.001129   0.000000
     5  O   -0.002354   0.000000   0.000000   0.000000   0.000000   0.000000
     6  O   -0.002340   0.000000   0.000000   0.000000   0.000000   0.000000
     7  O    8.332315   0.000000   0.000000   0.000000   0.000000   0.000000
     8  O    0.000000   8.360198  -0.002238  -0.000080  -0.001905  -0.002572
     9  O    0.000000  -0.002238   8.333549  -0.002278   0.000000   0.000000
    10  O    0.000000  -0.000080  -0.002278   8.335649  -0.001893   0.000000
    11  O    0.000000  -0.001905   0.000000  -0.001893   8.314874   0.000000
    12  O    0.000000  -0.002572   0.000000   0.000000   0.000000   8.345668
    13  O    0.000000  -0.000588  -0.001776   0.000000   0.000000  -0.000558
    14  O   -0.002019  -0.001130   0.000000   0.000000   0.000000  -0.001117
    15  O    0.000000   0.000000   0.000000   0.000000   0.000000  -0.002398
    16  O   -0.000003  -0.000144   0.000000   0.000000   0.000000  -0.002798
    17  H    0.000008   0.000003   0.000000   0.000000   0.000000   0.000114
    18  H    0.000000   0.002229   0.008992   0.014477  -0.000001   0.000000
    19  H    0.000000   0.000202   0.001313  -0.000038   0.000000   0.000000
    20  H    0.000000   0.000000   0.000000  -0.000001   0.000000   0.000000
    21  H    0.000000   0.000000  -0.000001   0.000382   0.000000   0.000000
    22  H   -0.000056   0.000093   0.000000  -0.000001   0.000070   0.000000
    23  H    0.010776   0.000113   0.000000   0.000000   0.000032  -0.000002
    24  H    0.000000   0.000000   0.000000  -0.000019   0.000048   0.000000
    25  H    0.000000  -0.000002   0.000000   0.011861   0.000878   0.000000
    26  H    0.000107   0.000000   0.000000   0.000000   0.000000   0.000000
    27  H    0.000228  -0.000014   0.000000  -0.000001   0.000000   0.000000
    28  H    0.001376   0.000000   0.000000   0.000000   0.000000   0.000000
    29  H    0.010539   0.000000   0.000000   0.000000   0.000000   0.000000
    30  H    0.260114   0.000000   0.000000   0.000000   0.000000   0.000000
    31  H    0.256199   0.000000   0.000000   0.000000   0.000000   0.000000
    32  H   -0.000003   0.248082   0.000090   0.000007   0.000031   0.000202
    33  H    0.000000   0.255108   0.000161   0.000154   0.013673   0.000095
    34  H    0.000000   0.013072   0.254506   0.000525  -0.000004  -0.000005
    35  H    0.000000  -0.000021   0.261656   0.000105   0.000000   0.000000
    36  H    0.000000   0.000448   0.000254   0.251780   0.012635   0.000000
    37  H    0.000000  -0.000022   0.010003   0.256411  -0.000014   0.000000
    38  H    0.000000   0.000364   0.000000   0.000330   0.249962   0.000000
    39  H    0.000000   0.000067   0.000000   0.000063   0.261372   0.000000
    40  H    0.000000   0.013651  -0.000002   0.000000   0.000000   0.254338
    41  H    0.000000  -0.000001   0.000000   0.000000   0.000000   0.258300
    42  H    0.000000   0.004049   0.000419   0.000000   0.000000   0.006466
    43  H    0.000000   0.000019   0.000090   0.000000   0.000000  -0.000066
    44  H    0.000057   0.000042   0.000000   0.000000   0.000000   0.000013
    45  H    0.000142   0.000859   0.000000   0.000000   0.000000   0.008317
    46  H    0.000000  -0.000002   0.000000   0.000000   0.000000   0.013122
    47  H    0.000000   0.000000   0.000000   0.000000   0.000000   0.000059
    48  H   -0.000013   0.001304   0.000000   0.000000   0.000015   0.000203
             13         14         15         16         17         18
     1  O   -0.002268  -0.000114   0.000000   0.000000   0.000000   0.246967
     2  O    0.000000   0.000000   0.000000   0.000000   0.000000   0.000150
     3  O    0.000000  -0.000884   0.000000  -0.001115  -0.000032  -0.000001
     4  O    0.000000   0.000000   0.000000   0.000000   0.000000   0.000074
     5  O    0.000000  -0.000361   0.000000   0.000000   0.000000   0.000100
     6  O    0.000000  -0.000002   0.000000  -0.003421   0.013447   0.000000
     7  O    0.000000  -0.002019   0.000000  -0.000003   0.000008   0.000000
     8  O   -0.000588  -0.001130   0.000000  -0.000144   0.000003   0.002229
     9  O   -0.001776   0.000000   0.000000   0.000000   0.000000   0.008992
    10  O    0.000000   0.000000   0.000000   0.000000   0.000000   0.014477
    11  O    0.000000   0.000000   0.000000   0.000000   0.000000  -0.000001
    12  O   -0.000558  -0.001117  -0.002398  -0.002798   0.000114   0.000000
    13  O    8.337423  -0.000402  -0.001993   0.000000   0.000000  -0.000086
    14  O   -0.000402   8.349120  -0.001747  -0.001689   0.000066  -0.000024
    15  O   -0.001993  -0.001747   8.320960   0.000000   0.000000   0.000000
    16  O    0.000000  -0.001689   0.000000   8.346361   0.259141   0.000000
    17  H    0.000000   0.000066   0.000000   0.259141   0.315707   0.000000
    18  H   -0.000086  -0.000024   0.000000   0.000000   0.000000   0.315466
    19  H    0.016205   0.000445  -0.000002   0.000000   0.000000  -0.026100
    20  H    0.000000   0.000000   0.000000   0.000000   0.000000   0.000004
    21  H    0.000000   0.000000   0.000000   0.000000   0.000000  -0.000724
    22  H    0.000000  -0.000014   0.000000   0.000041  -0.000002   0.000007
    23  H    0.000000   0.005020   0.000000   0.000685   0.000045   0.000002
    24  H    0.000000   0.000000   0.000000   0.000000   0.000000  -0.000001
    25  H    0.000000   0.000000   0.000000   0.000000   0.000000   0.000190
    26  H    0.000000   0.000001   0.000000   0.000000   0.000000  -0.000001
    27  H   -0.000003   0.003021   0.000000   0.000000   0.000000  -0.000310
    28  H    0.000000  -0.000002   0.000000   0.000467  -0.000758   0.000000
    29  H    0.000000   0.000000   0.000000   0.000285  -0.000429   0.000000
    30  H    0.000000  -0.000078   0.000000   0.000000   0.000000   0.000000
    31  H    0.000000   0.012656   0.000000   0.000002   0.000002   0.000000
    32  H    0.000201   0.007763  -0.000001   0.000094  -0.000006   0.000006
    33  H    0.000025  -0.000005   0.000000   0.000057  -0.000002   0.000004
    34  H    0.001383  -0.000001   0.000000   0.000000   0.000000  -0.000222
    35  H    0.007004   0.000000   0.000000   0.000000   0.000000  -0.000301
    36  H    0.000000   0.000000   0.000000   0.000000   0.000000  -0.000461
    37  H    0.000000   0.000000   0.000000   0.000000   0.000000  -0.000730
    38  H    0.000000   0.000000   0.000000  -0.000001   0.000000   0.000008
    39  H    0.000000   0.000000   0.000000   0.000000   0.000000   0.000000
    40  H    0.000142   0.000103   0.000086   0.000808  -0.000008  -0.000001
    41  H    0.000019   0.000090   0.000119   0.010263  -0.000155   0.000000
    42  H    0.252124   0.001770   0.000483  -0.000003   0.000000   0.000020
    43  H    0.259393   0.000012   0.010565   0.000000   0.000000   0.000004
    44  H    0.001817   0.255857   0.011940  -0.000019  -0.000001   0.000000
    45  H   -0.000038   0.247249   0.000395   0.012891  -0.000261   0.000000
    46  H    0.000466   0.000322   0.250760  -0.000001   0.000000   0.000000
    47  H    0.000086   0.000072   0.259752   0.000000   0.000000   0.000000
    48  H    0.000000   0.000229   0.000000   0.256268  -0.027762   0.000000
             19         20         21         22         23         24
     1  O    0.255024  -0.000003   0.013730   0.000028  -0.000023  -0.000001
     2  O    0.000044   0.260336   0.249663  -0.000003   0.000000   0.008303
     3  O   -0.000003   0.000000  -0.000001   0.250841   0.244343   0.000098
     4  O    0.000000   0.000115   0.000704   0.014244  -0.000028   0.259740
     5  O    0.000094   0.000057   0.000550   0.005519   0.004418   0.000813
     6  O    0.000000   0.000000   0.000000   0.000045   0.000805   0.000000
     7  O    0.000000   0.000000   0.000000  -0.000056   0.010776   0.000000
     8  O    0.000202   0.000000   0.000000   0.000093   0.000113   0.000000
     9  O    0.001313   0.000000  -0.000001   0.000000   0.000000   0.000000
    10  O   -0.000038  -0.000001   0.000382  -0.000001   0.000000  -0.000019
    11  O    0.000000   0.000000   0.000000   0.000070   0.000032   0.000048
    12  O    0.000000   0.000000   0.000000   0.000000  -0.000002   0.000000
    13  O    0.016205   0.000000   0.000000   0.000000   0.000000   0.000000
    14  O    0.000445   0.000000   0.000000  -0.000014   0.005020   0.000000
    15  O   -0.000002   0.000000   0.000000   0.000000   0.000000   0.000000
    16  O    0.000000   0.000000   0.000000   0.000041   0.000685   0.000000
    17  H    0.000000   0.000000   0.000000  -0.000002   0.000045   0.000000
    18  H   -0.026100   0.000004  -0.000724   0.000007   0.000002  -0.000001
    19  H    0.317189  -0.000002  -0.000181   0.000000   0.000003   0.000000
    20  H   -0.000002   0.356040  -0.025668   0.000000   0.000000  -0.000154
    21  H   -0.000181  -0.025668   0.317634   0.000001   0.000000  -0.000583
    22  H    0.000000   0.000000   0.000001   0.308603  -0.023746  -0.000454
    23  H    0.000003   0.000000   0.000000  -0.023746   0.311100   0.000007
    24  H    0.000000  -0.000154  -0.000583  -0.000454   0.000007   0.325550
    25  H   -0.000004  -0.000036   0.000245  -0.000438   0.000002  -0.026847
    26  H    0.000000  -0.000203  -0.000876  -0.000086  -0.000058   0.000389
    27  H   -0.000413  -0.000002   0.000302  -0.000178  -0.000117  -0.000037
    28  H    0.000000   0.000000   0.000000  -0.000117  -0.000301   0.000000
    29  H    0.000000   0.000000   0.000000  -0.000002   0.000107   0.000000
    30  H    0.000000   0.000000   0.000000   0.000064  -0.000339   0.000000
    31  H    0.000000   0.000000   0.000000  -0.000002  -0.000118   0.000000
    32  H   -0.000038   0.000000  -0.000002  -0.000279  -0.000216   0.000000
    33  H   -0.000001   0.000000   0.000000  -0.000014  -0.000005   0.000000
    34  H    0.000005   0.000000   0.000000   0.000000   0.000000   0.000000
    35  H    0.000316   0.000000   0.000000   0.000000   0.000000   0.000000
    36  H    0.000001   0.000000  -0.000011   0.000001   0.000000   0.000004
    37  H    0.000008   0.000000  -0.000012   0.000000   0.000000  -0.000002
    38  H    0.000000   0.000000   0.000000   0.000088  -0.000126  -0.000137
    39  H    0.000000   0.000000   0.000000   0.000005   0.000000  -0.000002
    40  H   -0.000001   0.000000   0.000000   0.000000   0.000000   0.000000
    41  H    0.000000   0.000000   0.000000   0.000000   0.000000   0.000000
    42  H   -0.000779   0.000000   0.000000   0.000000   0.000000   0.000000
    43  H   -0.000323   0.000000   0.000000   0.000000   0.000000   0.000000
    44  H    0.000064   0.000000   0.000000  -0.000002  -0.000039   0.000000
    45  H   -0.000013   0.000000   0.000000   0.000004  -0.000399   0.000000
    46  H   -0.000001   0.000000   0.000000   0.000000   0.000000   0.000000
    47  H    0.000000   0.000000   0.000000   0.000000   0.000000   0.000000
    48  H    0.000000   0.000000   0.000000  -0.000111  -0.000960   0.000000
             25         26         27         28         29         30
     1  O    0.000081   0.000160   0.013264   0.000000   0.000000   0.000000
     2  O    0.002269   0.011394   0.000062   0.000000   0.000000   0.000000
     3  O    0.000133   0.000112   0.000816   0.010480  -0.000025   0.000282
     4  O    0.252867   0.000600   0.000051   0.000000   0.000000   0.000000
     5  O    0.000005   0.257552   0.254210  -0.000003   0.000000   0.009659
     6  O    0.000000   0.000000   0.000000   0.257353   0.260461   0.000142
     7  O    0.000000   0.000107   0.000228   0.001376   0.010539   0.260114
     8  O   -0.000002   0.000000  -0.000014   0.000000   0.000000   0.000000
     9  O    0.000000   0.000000   0.000000   0.000000   0.000000   0.000000
    10  O    0.011861   0.000000  -0.000001   0.000000   0.000000   0.000000
    11  O    0.000878   0.000000   0.000000   0.000000   0.000000   0.000000
    12  O    0.000000   0.000000   0.000000   0.000000   0.000000   0.000000
    13  O    0.000000   0.000000  -0.000003   0.000000   0.000000   0.000000
    14  O    0.000000   0.000001   0.003021  -0.000002   0.000000  -0.000078
    15  O    0.000000   0.000000   0.000000   0.000000   0.000000   0.000000
    16  O    0.000000   0.000000   0.000000   0.000467   0.000285   0.000000
    17  H    0.000000   0.000000   0.000000  -0.000758  -0.000429   0.000000
    18  H    0.000190  -0.000001  -0.000310   0.000000   0.000000   0.000000
    19  H   -0.000004   0.000000  -0.000413   0.000000   0.000000   0.000000
    20  H   -0.000036  -0.000203  -0.000002   0.000000   0.000000   0.000000
    21  H    0.000245  -0.000876   0.000302   0.000000   0.000000   0.000000
    22  H   -0.000438  -0.000086  -0.000178  -0.000117  -0.000002   0.000064
    23  H    0.000002  -0.000058  -0.000117  -0.000301   0.000107  -0.000339
    24  H   -0.026847   0.000389  -0.000037   0.000000   0.000000   0.000000
    25  H    0.320514  -0.000035   0.000007   0.000000   0.000000   0.000000
    26  H   -0.000035   0.325944  -0.027025   0.000000   0.000000  -0.000111
    27  H    0.000007  -0.027025   0.313538  -0.000001   0.000000  -0.000340
    28  H    0.000000   0.000000  -0.000001   0.345413  -0.029553  -0.000004
    29  H    0.000000   0.000000   0.000000  -0.029553   0.323808  -0.000223
    30  H    0.000000  -0.000111  -0.000340  -0.000004  -0.000223   0.324254
    31  H    0.000000  -0.000006   0.000075  -0.000035  -0.000457  -0.028646
    32  H    0.000006   0.000000   0.000231  -0.000005   0.000000  -0.000001
    33  H   -0.000002   0.000000  -0.000001   0.000000   0.000000   0.000000
    34  H    0.000000   0.000000   0.000000   0.000000   0.000000   0.000000
    35  H    0.000000   0.000000   0.000000   0.000000   0.000000   0.000000
    36  H   -0.001246   0.000000   0.000000   0.000000   0.000000   0.000000
    37  H   -0.000197   0.000000   0.000000   0.000000   0.000000   0.000000
    38  H   -0.001021   0.000000   0.000001   0.000001   0.000000   0.000000
    39  H   -0.000001   0.000000   0.000000   0.000000   0.000000   0.000000
    40  H    0.000000   0.000000   0.000000   0.000000   0.000000   0.000000
    41  H    0.000000   0.000000   0.000000   0.000000   0.000000   0.000000
    42  H    0.000000   0.000000   0.000001   0.000000   0.000000   0.000000
    43  H    0.000000   0.000000   0.000000   0.000000   0.000000   0.000000
    44  H    0.000000   0.000000  -0.000082   0.000000   0.000000   0.000001
    45  H    0.000000   0.000000  -0.000062   0.000001   0.000004   0.000002
    46  H    0.000000   0.000000   0.000000   0.000000   0.000000   0.000000
    47  H    0.000000   0.000000   0.000000   0.000000   0.000000   0.000000
    48  H    0.000000   0.000000   0.000000   0.000294  -0.000071   0.000000
             31         32         33         34         35         36
     1  O    0.000000   0.003805  -0.000010   0.000248   0.000407   0.000079
     2  O    0.000000   0.000000   0.000000   0.000000   0.000000   0.000000
     3  O    0.000086   0.011585   0.000516   0.000000   0.000000  -0.000002
     4  O    0.000000   0.000011  -0.000002   0.000000   0.000000   0.000316
     5  O    0.000864  -0.000008   0.000000   0.000000   0.000000   0.000000
     6  O    0.000241   0.000000   0.000000   0.000000   0.000000   0.000000
     7  O    0.256199  -0.000003   0.000000   0.000000   0.000000   0.000000
     8  O    0.000000   0.248082   0.255108   0.013072  -0.000021   0.000448
     9  O    0.000000   0.000090   0.000161   0.254506   0.261656   0.000254
    10  O    0.000000   0.000007   0.000154   0.000525   0.000105   0.251780
    11  O    0.000000   0.000031   0.013673  -0.000004   0.000000   0.012635
    12  O    0.000000   0.000202   0.000095  -0.000005   0.000000   0.000000
    13  O    0.000000   0.000201   0.000025   0.001383   0.007004   0.000000
    14  O    0.012656   0.007763  -0.000005  -0.000001   0.000000   0.000000
    15  O    0.000000  -0.000001   0.000000   0.000000   0.000000   0.000000
    16  O    0.000002   0.000094   0.000057   0.000000   0.000000   0.000000
    17  H    0.000002  -0.000006  -0.000002   0.000000   0.000000   0.000000
    18  H    0.000000   0.000006   0.000004  -0.000222  -0.000301  -0.000461
    19  H    0.000000  -0.000038  -0.000001   0.000005   0.000316   0.000001
    20  H    0.000000   0.000000   0.000000   0.000000   0.000000   0.000000
    21  H    0.000000  -0.000002   0.000000   0.000000   0.000000  -0.000011
    22  H   -0.000002  -0.000279  -0.000014   0.000000   0.000000   0.000001
    23  H   -0.000118  -0.000216  -0.000005   0.000000   0.000000   0.000000
    24  H    0.000000   0.000000   0.000000   0.000000   0.000000   0.000004
    25  H    0.000000   0.000006  -0.000002   0.000000   0.000000  -0.001246
    26  H   -0.000006   0.000000   0.000000   0.000000   0.000000   0.000000
    27  H    0.000075   0.000231  -0.000001   0.000000   0.000000   0.000000
    28  H   -0.000035  -0.000005   0.000000   0.000000   0.000000   0.000000
    29  H   -0.000457   0.000000   0.000000   0.000000   0.000000   0.000000
    30  H   -0.028646  -0.000001   0.000000   0.000000   0.000000   0.000000
    31  H    0.331644  -0.000003   0.000000   0.000000   0.000000   0.000000
    32  H   -0.000003   0.313660  -0.025278  -0.000376  -0.000002   0.000004
    33  H    0.000000  -0.025278   0.311416  -0.000498   0.000000   0.000216
    34  H    0.000000  -0.000376  -0.000498   0.327802  -0.028729   0.000106
    35  H    0.000000  -0.000002   0.000000  -0.028729   0.331100  -0.000006
    36  H    0.000000   0.000004   0.000216   0.000106  -0.000006   0.333899
    37  H    0.000000  -0.000003  -0.000005  -0.000693  -0.000149  -0.025132
    38  H    0.000000   0.000228  -0.000909   0.000000   0.000000  -0.000813
    39  H    0.000000  -0.000003  -0.000255   0.000000   0.000000  -0.000307
    40  H    0.000000  -0.000577  -0.000266   0.000039  -0.000001   0.000000
    41  H    0.000000   0.000008   0.000000   0.000000   0.000000   0.000000
    42  H    0.000000  -0.000235  -0.000042   0.000224  -0.000341   0.000000
    43  H    0.000000   0.000000  -0.000001  -0.000009  -0.000048   0.000000
    44  H   -0.000221  -0.000152   0.000001  -0.000001   0.000000   0.000000
    45  H   -0.000405  -0.000570  -0.000001   0.000000   0.000000   0.000000
    46  H    0.000000  -0.000001   0.000000   0.000000   0.000000   0.000000
    47  H    0.000000   0.000000   0.000000   0.000000   0.000000   0.000000
    48  H    0.000003   0.000209   0.000129   0.000000   0.000000   0.000000
             37         38         39         40         41         42
     1  O    0.000187  -0.000002   0.000000   0.000000   0.000000   0.000225
     2  O    0.000001   0.000000   0.000000   0.000000   0.000000   0.000000
     3  O    0.000000   0.004883  -0.000006  -0.000001   0.000000  -0.000001
     4  O    0.000045   0.008528   0.000032   0.000000   0.000000   0.000000
     5  O    0.000000  -0.000004   0.000000   0.000000   0.000000   0.000000
     6  O    0.000000   0.000000   0.000000   0.000000   0.000001   0.000000
     7  O    0.000000   0.000000   0.000000   0.000000   0.000000   0.000000
     8  O   -0.000022   0.000364   0.000067   0.013651  -0.000001   0.004049
     9  O    0.010003   0.000000   0.000000  -0.000002   0.000000   0.000419
    10  O    0.256411   0.000330   0.000063   0.000000   0.000000   0.000000
    11  O   -0.000014   0.249962   0.261372   0.000000   0.000000   0.000000
    12  O    0.000000   0.000000   0.000000   0.254338   0.258300   0.006466
    13  O    0.000000   0.000000   0.000000   0.000142   0.000019   0.252124
    14  O    0.000000   0.000000   0.000000   0.000103   0.000090   0.001770
    15  O    0.000000   0.000000   0.000000   0.000086   0.000119   0.000483
    16  O    0.000000  -0.000001   0.000000   0.000808   0.010263  -0.000003
    17  H    0.000000   0.000000   0.000000  -0.000008  -0.000155   0.000000
    18  H   -0.000730   0.000008   0.000000  -0.000001   0.000000   0.000020
    19  H    0.000008   0.000000   0.000000  -0.000001   0.000000  -0.000779
    20  H    0.000000   0.000000   0.000000   0.000000   0.000000   0.000000
    21  H   -0.000012   0.000000   0.000000   0.000000   0.000000   0.000000
    22  H    0.000000   0.000088   0.000005   0.000000   0.000000   0.000000
    23  H    0.000000  -0.000126   0.000000   0.000000   0.000000   0.000000
    24  H   -0.000002  -0.000137  -0.000002   0.000000   0.000000   0.000000
    25  H   -0.000197  -0.001021  -0.000001   0.000000   0.000000   0.000000
    26  H    0.000000   0.000000   0.000000   0.000000   0.000000   0.000000
    27  H    0.000000   0.000001   0.000000   0.000000   0.000000   0.000001
    28  H    0.000000   0.000001   0.000000   0.000000   0.000000   0.000000
    29  H    0.000000   0.000000   0.000000   0.000000   0.000000   0.000000
    30  H    0.000000   0.000000   0.000000   0.000000   0.000000   0.000000
    31  H    0.000000   0.000000   0.000000   0.000000   0.000000   0.000000
    32  H   -0.000003   0.000228  -0.000003  -0.000577   0.000008  -0.000235
    33  H   -0.000005  -0.000909  -0.000255  -0.000266   0.000000  -0.000042
    34  H   -0.000693   0.000000   0.000000   0.000039   0.000000   0.000224
    35  H   -0.000149   0.000000   0.000000  -0.000001   0.000000  -0.000341
    36  H   -0.025132  -0.000813  -0.000307   0.000000   0.000000   0.000000
    37  H    0.320219  -0.000002  -0.000001   0.000000   0.000000   0.000000
    38  H   -0.000002   0.314018  -0.025916   0.000000   0.000000   0.000000
    39  H   -0.000001  -0.025916   0.353214   0.000000   0.000000   0.000000
    40  H    0.000000   0.000000   0.000000   0.319011  -0.026187  -0.000072
    41  H    0.000000   0.000000   0.000000  -0.026187   0.315640  -0.000168
    42  H    0.000000   0.000000   0.000000  -0.000072  -0.000168   0.326828
    43  H    0.000000   0.000000   0.000000   0.000005   0.000001  -0.027614
    44  H    0.000000   0.000000   0.000000  -0.000007   0.000012   0.000216
    45  H    0.000000   0.000000   0.000000  -0.000300  -0.000023   0.000199
    46  H    0.000000   0.000000   0.000000  -0.000367  -0.000496   0.000427
    47  H    0.000000   0.000000   0.000000  -0.000002  -0.000003  -0.000001
    48  H    0.000000   0.000027   0.000000   0.000023  -0.000297   0.000000
             43         44         45         46         47         48
     1  O    0.000075   0.000062  -0.000004   0.000000   0.000000   0.000000
     2  O    0.000000   0.000000   0.000000   0.000000   0.000000   0.000000
     3  O    0.000000   0.000041   0.000191   0.000000   0.000000   0.009096
     4  O    0.000000   0.000000   0.000000   0.000000   0.000000   0.000000
     5  O    0.000000   0.000022   0.000013   0.000000   0.000000   0.000000
     6  O    0.000000   0.000000   0.000003   0.000000   0.000000   0.002263
     7  O    0.000000   0.000057   0.000142   0.000000   0.000000  -0.000013
     8  O    0.000019   0.000042   0.000859  -0.000002   0.000000   0.001304
     9  O    0.000090   0.000000   0.000000   0.000000   0.000000   0.000000
    10  O    0.000000   0.000000   0.000000   0.000000   0.000000   0.000000
    11  O    0.000000   0.000000   0.000000   0.000000   0.000000   0.000015
    12  O   -0.000066   0.000013   0.008317   0.013122   0.000059   0.000203
    13  O    0.259393   0.001817  -0.000038   0.000466   0.000086   0.000000
    14  O    0.000012   0.255857   0.247249   0.000322   0.000072   0.000229
    15  O    0.010565   0.011940   0.000395   0.250760   0.259752   0.000000
    16  O    0.000000  -0.000019   0.012891  -0.000001   0.000000   0.256268
    17  H    0.000000  -0.000001  -0.000261   0.000000   0.000000  -0.027762
    18  H    0.000004   0.000000   0.000000   0.000000   0.000000   0.000000
    19  H   -0.000323   0.000064  -0.000013  -0.000001   0.000000   0.000000
    20  H    0.000000   0.000000   0.000000   0.000000   0.000000   0.000000
    21  H    0.000000   0.000000   0.000000   0.000000   0.000000   0.000000
    22  H    0.000000  -0.000002   0.000004   0.000000   0.000000  -0.000111
    23  H    0.000000  -0.000039  -0.000399   0.000000   0.000000  -0.000960
    24  H    0.000000   0.000000   0.000000   0.000000   0.000000   0.000000
    25  H    0.000000   0.000000   0.000000   0.000000   0.000000   0.000000
    26  H    0.000000   0.000000   0.000000   0.000000   0.000000   0.000000
    27  H    0.000000  -0.000082  -0.000062   0.000000   0.000000   0.000000
    28  H    0.000000   0.000000   0.000001   0.000000   0.000000   0.000294
    29  H    0.000000   0.000000   0.000004   0.000000   0.000000  -0.000071
    30  H    0.000000   0.000001   0.000002   0.000000   0.000000   0.000000
    31  H    0.000000  -0.000221  -0.000405   0.000000   0.000000   0.000003
    32  H    0.000000  -0.000152  -0.000570  -0.000001   0.000000   0.000209
    33  H   -0.000001   0.000001  -0.000001   0.000000   0.000000   0.000129
    34  H   -0.000009  -0.000001   0.000000   0.000000   0.000000   0.000000
    35  H   -0.000048   0.000000   0.000000   0.000000   0.000000   0.000000
    36  H    0.000000   0.000000   0.000000   0.000000   0.000000   0.000000
    37  H    0.000000   0.000000   0.000000   0.000000   0.000000   0.000000
    38  H    0.000000   0.000000   0.000000   0.000000   0.000000   0.000027
    39  H    0.000000   0.000000   0.000000   0.000000   0.000000   0.000000
    40  H    0.000005  -0.000007  -0.000300  -0.000367  -0.000002   0.000023
    41  H    0.000001   0.000012  -0.000023  -0.000496  -0.000003  -0.000297
    42  H   -0.027614   0.000216   0.000199   0.000427  -0.000001   0.000000
    43  H    0.322599   0.000170  -0.000010  -0.000624  -0.000168   0.000000
    44  H    0.000170   0.323181  -0.025939  -0.000794  -0.000244  -0.000001
    45  H   -0.000010  -0.025939   0.324003   0.000193   0.000006  -0.000684
    46  H   -0.000624  -0.000794   0.000193   0.316821  -0.025211   0.000000
    47  H   -0.000168  -0.000244   0.000006  -0.025211   0.354307   0.000000
    48  H    0.000000  -0.000001  -0.000684   0.000000   0.000000   0.323080
 Mulliken atomic charges:
              1
     1  O   -0.889687
     2  O   -0.849136
     3  O   -0.897731
     4  O   -0.873010
     5  O   -0.884178
     6  O   -0.857864
     7  O   -0.863588
     8  O   -0.888563
     9  O   -0.863077
    10  O   -0.863889
    11  O   -0.848075
    12  O   -0.877382
    13  O   -0.868575
    14  O   -0.874208
    15  O   -0.848919
    16  O   -0.878168
    17  H    0.440883
    18  H    0.440264
    19  H    0.436988
    20  H    0.409518
    21  H    0.444850
    22  H    0.445853
    23  H    0.449021
    24  H    0.433286
    25  H    0.440771
    26  H    0.432144
    27  H    0.442780
    28  H    0.415394
    29  H    0.435555
    30  H    0.435224
    31  H    0.428122
    32  H    0.441532
    33  H    0.445742
    34  H    0.432627
    35  H    0.429011
    36  H    0.428234
    37  H    0.440086
    38  H    0.450495
    39  H    0.411739
    40  H    0.439585
    41  H    0.442878
    42  H    0.435807
    43  H    0.435930
    44  H    0.434004
    45  H    0.434239
    46  H    0.445387
    47  H    0.411347
    48  H    0.436756
 Sum of Mulliken atomic charges =   0.00000
 Mulliken charges with hydrogens summed into heavy atoms:
              1
     1  O   -0.012435
     2  O    0.005231
     3  O   -0.002856
     4  O    0.001047
     5  O   -0.009254
     6  O   -0.006915
     7  O   -0.000243
     8  O   -0.001289
     9  O   -0.001439
    10  O    0.004430
    11  O    0.014158
    12  O    0.005081
    13  O    0.003163
    14  O   -0.005965
    15  O    0.007815
    16  O   -0.000529
 Sum of Mulliken charges with hydrogens summed into heavy atoms =   0.00000
 Electronic spatial extent (au):  <R**2>=           8404.4339
 Charge=              0.0000 electrons
 Dipole moment (field-independent basis, Debye):
    X=              1.4945    Y=              0.0509    Z=             -3.6656  Tot=              3.9589
 Quadrupole moment (field-independent basis, Debye-Ang):
   XX=            -93.3745   YY=            -88.7499   ZZ=            -97.9443
   XY=             20.1058   XZ=              5.1852   YZ=            -21.7028
 Traceless Quadrupole moment (field-independent basis, Debye-Ang):
   XX=             -0.0183   YY=              4.6064   ZZ=             -4.5881
   XY=             20.1058   XZ=              5.1852   YZ=            -21.7028
 Octapole moment (field-independent basis, Debye-Ang**2):
  XXX=            -74.8398  YYY=            -50.1075  ZZZ=             23.8512  XYY=             64.9866
  XXY=            -35.4112  XXZ=             -4.7479  XZZ=            -22.6417  YZZ=            -91.1432
  YYZ=            -42.8023  XYZ=            -58.1959
 Hexadecapole moment (field-independent basis, Debye-Ang**3):
 XXXX=          -2717.8718 YYYY=          -3032.2856 ZZZZ=          -2633.9186 XXXY=           -120.6345
 XXXZ=            334.5657 YYYX=            176.6368 YYYZ=           -721.9408 ZZZX=            333.7782
 ZZZY=           -553.7692 XXYY=           -840.9958 XXZZ=           -745.4486 YYZZ=           -892.6499
 XXYZ=           -100.6896 YYXZ=             52.7597 ZZXY=             97.4365
 N-N= 1.513489273129D+03 E-N=-5.916296487627D+03  KE= 1.215286145202D+03
  Exact polarizability:  72.129   6.251  73.878   0.182  -1.915  75.868
 Approx polarizability:  53.440   3.896  54.267   0.495  -1.680  56.088
 1\1\GINC-QTPCLNT135\SP\RHF\6-31G\H32O16\MIAO\20-Jul-2010\0\\#hf/6-31g 
 geom=connectivity nosymm polar\\Water16 modeled by HyperChem and optim
 ized by amber94 force feld\\0,1\O,0,-0.564282,-0.573389,-2.52729\O,0,-
 3.559032,-1.843467,-2.145618\O,0,-0.780634,0.549622,1.559678\O,0,-2.35
 2054,-2.187566,0.721791\O,0,-2.787945,1.065148,-0.801006\O,0,-0.743852
 ,3.06647,3.696188\O,0,-2.29861,3.527736,1.00714\O,0,1.900072,-0.30397,
 -0.164006\O,0,2.287796,-2.178609,-2.79388\O,0,0.017154,-3.564946,-1.13
 0639\O,0,0.672636,-2.500629,1.90954\O,0,3.708764,2.344338,-0.263127\O,
 0,2.319057,0.886153,-3.216717\O,0,0.33891,2.593537,-0.753703\O,0,2.572
 094,3.995314,-2.728268\O,0,1.887855,2.390519,2.224219\H,0,1.534061,3.0
 011,2.879735\H,0,-0.080858,-1.335857,-2.192111\H,0,0.119062,-0.063496,
 -2.973049\H,0,-3.976867,-2.377445,-2.823766\H,0,-2.661798,-1.718761,-2
 .474039\H,0,-1.538516,-0.014361,1.370546\H,0,-0.951282,1.322831,1.0103
 01\H,0,-3.196693,-2.026671,0.291598\H,0,-1.889702,-2.743454,0.085772\H
 ,0,-3.363079,0.3723,-1.138435\H,0,-1.995432,0.973197,-1.341287\H,0,-1.
 142793,2.220454,3.479019\H,0,-1.26791,3.692487,3.186715\H,0,-3.012998,
 2.988911,0.653722\H,0,-1.686213,3.587875,0.268187\H,0,1.03415,0.118481
 ,-0.148631\H,0,1.855278,-0.91235,0.581306\H,0,2.60437,-1.650842,-2.054
 605\H,0,2.444322,-1.605606,-3.550011\H,0,0.548169,-3.517187,-0.329719\
 H,0,0.670232,-3.709525,-1.823086\H,0,-0.172069,-2.038118,1.860625\H,0,
 0.64313,-2.928864,2.767014\H,0,3.612301,1.40626,-0.070951\H,0,3.61979,
 2.747259,0.60691\H,0,2.549622,1.076628,-2.301441\H,0,2.41755,1.73966,-
 3.649251\H,0,0.667371,2.957257,-1.581703\H,0,1.077078,2.72184,-0.14815
 4\H,0,3.260415,3.807675,-2.080215\H,0,2.756504,4.895549,-3.003656\H,0,
 1.316135,1.622226,2.321722\\Version=EM64M-G09RevA.02\HF=-1215.9876664\
 RMSD=5.622e-09\Dipole=0.5879862,0.0200089,-1.4421567\Polar=72.1289181,
 6.2505384,73.8779921,0.1816518,-1.9150235,75.8680962\HyperPolar=-50.10
 55563,-7.9496197,-25.4380254,13.9398107,-33.0261049,-21.3335804,-26.59
 10047,61.6606121,33.0636815,9.5568432\Quadrupole=-0.0135812,3.4247108,
 -3.4111296,14.9481944,3.8550358,-16.1354659\PG=C01 [X(H32O16)]\\@


 THE PROGRESS OF RIVERS TO THE SEA IS NOT AS RAPID
 AS THAT OF MAN TO ERROR.
                                              -- VOLTAIRE
 Job cpu time:  0 days  0 hours  2 minutes 47.6 seconds.
 File lengths (MBytes):  RWF=     25 Int=      0 D2E=      0 Chk=      3 Scr=      1
 Normal termination of Gaussian 09 at Tue Jul 20 13:49:21 2010.
