 Entering Gaussian System, Link 0=g09
 Input=ACE_GLY6_NME.gjf
 Output=ACE_GLY6_NME.log
 Initial command:
 /Users/miao/Workspace/g09/l1.exe /Users/miao/Workspace/new_quick/example/ACE_GLY6_NME/Gau-16091.inp -scrdir=/Users/miao/Workspace/new_quick/example/ACE_GLY6_NME/
 Entering Link 1 = /Users/miao/Workspace/g09/l1.exe PID=     16092.
  
 Copyright (c) 1988,1990,1992,1993,1995,1998,2003,2009, Gaussian, Inc.
                  All Rights Reserved.
  
 This is part of the Gaussian(R) 09 program.  It is based on
 the Gaussian(R) 03 system (copyright 2003, Gaussian, Inc.),
 the Gaussian(R) 98 system (copyright 1998, Gaussian, Inc.),
 the Gaussian(R) 94 system (copyright 1995, Gaussian, Inc.),
 the Gaussian 92(TM) system (copyright 1992, Gaussian, Inc.),
 the Gaussian 90(TM) system (copyright 1990, Gaussian, Inc.),
 the Gaussian 88(TM) system (copyright 1988, Gaussian, Inc.),
 the Gaussian 86(TM) system (copyright 1986, Carnegie Mellon
 University), and the Gaussian 82(TM) system (copyright 1983,
 Carnegie Mellon University). Gaussian is a federally registered
 trademark of Gaussian, Inc.
  
 This software contains proprietary and confidential information,
 including trade secrets, belonging to Gaussian, Inc.
  
 This software is provided under written license and may be
 used, copied, transmitted, or stored only in accord with that
 written license.
  
 The following legend is applicable only to US Government
 contracts under FAR:
  
                    RESTRICTED RIGHTS LEGEND
  
 Use, reproduction and disclosure by the US Government is
 subject to restrictions as set forth in subparagraphs (a)
 and (c) of the Commercial Computer Software - Restricted
 Rights clause in FAR 52.227-19.
  
 Gaussian, Inc.
 340 Quinnipiac St., Bldg. 40, Wallingford CT 06492
  
  
 ---------------------------------------------------------------
 Warning -- This program may not be used in any manner that
 competes with the business of Gaussian, Inc. or will provide
 assistance to any competitor of Gaussian, Inc.  The licensee
 of this program is prohibited from giving any competitor of
 Gaussian, Inc. access to this program.  By using this program,
 the user acknowledges that Gaussian, Inc. is engaged in the
 business of creating and licensing software in the field of
 computational chemistry and represents and warrants to the
 licensee that it is not a competitor of Gaussian, Inc. and that
 it will not use this program in any manner prohibited above.
 ---------------------------------------------------------------
  

 Cite this work as:
 Gaussian 09, Revision A.02,
 M. J. Frisch, G. W. Trucks, H. B. Schlegel, G. E. Scuseria, 
 M. A. Robb, J. R. Cheeseman, G. Scalmani, V. Barone, B. Mennucci, 
 G. A. Petersson, H. Nakatsuji, M. Caricato, X. Li, H. P. Hratchian, 
 A. F. Izmaylov, J. Bloino, G. Zheng, J. L. Sonnenberg, M. Hada, 
 M. Ehara, K. Toyota, R. Fukuda, J. Hasegawa, M. Ishida, T. Nakajima, 
 Y. Honda, O. Kitao, H. Nakai, T. Vreven, J. A. Montgomery, Jr., 
 J. E. Peralta, F. Ogliaro, M. Bearpark, J. J. Heyd, E. Brothers, 
 K. N. Kudin, V. N. Staroverov, R. Kobayashi, J. Normand, 
 K. Raghavachari, A. Rendell, J. C. Burant, S. S. Iyengar, J. Tomasi, 
 M. Cossi, N. Rega, J. M. Millam, M. Klene, J. E. Knox, J. B. Cross, 
 V. Bakken, C. Adamo, J. Jaramillo, R. Gomperts, R. E. Stratmann, 
 O. Yazyev, A. J. Austin, R. Cammi, C. Pomelli, J. W. Ochterski, 
 R. L. Martin, K. Morokuma, V. G. Zakrzewski, G. A. Voth, 
 P. Salvador, J. J. Dannenberg, S. Dapprich, A. D. Daniels, 
 O. Farkas, J. B. Foresman, J. V. Ortiz, J. Cioslowski, 
 and D. J. Fox, Gaussian, Inc., Wallingford CT, 2009.
 
 ******************************************
 Gaussian 09:  EM64M-G09RevA.02 11-Jun-2009
                 3-Nov-2010 
 ******************************************
 -------------------------------
 #HF/6-31g* scf=(conver=5) nofmm
 -------------------------------
 1/38=1/1;
 2/12=2,17=6,18=5,40=1/2;
 3/5=1,6=6,7=1,11=9,16=1,25=1,30=1,49=2048/1,2,3;
 4//1;
 5/5=2,6=5,38=5/2;
 6/7=2,8=2,9=2,10=2,28=1/1;
 99/5=1,9=1/99;
 ----
 test
 ----
 Symbolic Z-matrix:
 Charge =  0 Multiplicity = 1
 H                    -0.791    -0.866     0.019 
 C                    -0.41      0.146     0.154 
 H                    -0.503     0.433     1.201 
 H                    -0.984     0.836    -0.464 
 C                     1.048     0.238    -0.245 
 O                     1.659    -0.755    -0.662 
 N                     1.748     1.526    -0.136 
 H                     1.492     2.463     0.139 
 C                     3.128     1.277    -0.544 
 H                     3.332     0.208    -0.484 
 H                     3.265     1.616    -1.571 
 C                     4.097     2.013     0.349 
 O                     3.922     3.19      0.674 
 N                     5.285     1.305     0.847 
 H                     5.664     0.374     0.744 
 C                     6.017     2.263     1.671 
 H                     5.69      3.273     1.423 
 H                     5.811     2.063     2.722 
 C                     7.503     2.156     1.433 
 O                     8.08      1.067     1.378 
 N                     8.288     3.387     1.262 
 H                     8.083     4.376     1.261 
 C                     9.67      2.966     1.052 
 H                     9.791     1.942     1.406 
 H                     9.901     3.012    -0.012 
 C                     10.627    3.861     1.802 
 O                     10.518    5.09      1.792 
 N                     11.723    3.249     2.567 
 H                     12.038    2.306     2.743 
 C                     12.466    4.351     3.172 
 H                     12.232    5.274     2.642 
 H                     12.174    4.449     4.218 
 C                     13.953    4.106     3.098 
 O                     14.451    3.012     3.378 
 N                     14.836    5.204     2.678 
 H                     14.705    6.166     2.4 
 C                     16.195    4.669     2.704 
 H                     16.215    3.771     3.322 
 H                     16.501    4.418     1.689 
 C                     17.162    5.679     3.273 
 O                     17.145    6.865     2.934 
 N                     18.155    5.235     4.262 
 H                     18.387    4.357     4.705 
 C                     18.934    6.418     4.619 
 H                     18.806    7.178     3.848 
 H                     18.58     6.806     5.574 
 C                     20.401    6.083     4.739 
 O                     20.796    5.079     5.337 
 N                     21.389    6.981     4.124 
 H                     21.34     7.84      3.595 
 C                     22.699    6.414     4.397 
 H                     22.585    5.495     4.973 
 H                     23.203    6.192     3.456 
 H                     23.293    7.128     4.967 
 
 Stoichiometry    C15H25N7O7
 Framework group  C1[X(C15H25N7O7)]
 Deg. of freedom   156
 Full point group                 C1      NOp   1
 Largest Abelian subgroup         C1      NOp   1
 Largest concise Abelian subgroup C1      NOp   1
                         Standard orientation:                         
 ---------------------------------------------------------------------
 Center     Atomic      Atomic             Coordinates (Angstroms)
 Number     Number       Type             X           Y           Z
 ---------------------------------------------------------------------
      1          1           0      -12.819531   -1.067473    0.544740
      2          6           0      -12.158037   -0.216118    0.703327
      3          1           0      -11.934084   -0.122434    1.765539
      4          1           0      -12.645823    0.693376    0.353493
      5          6           0      -10.856716   -0.387962   -0.051963
      6          8           0      -10.646990   -1.395792   -0.740116
      7          7           0       -9.827402    0.658046    0.032922
      8          1           0       -9.751545    1.557888    0.484208
      9          6           0       -8.693678    0.180686   -0.754265
     10          1           0       -8.779461   -0.897536   -0.888636
     11          1           0       -8.702064    0.670077   -1.728352
     12          6           0       -7.387744    0.487242   -0.062409
     13          8           0       -7.159766    1.587684    0.446151
     14          7           0       -6.356647   -0.557986    0.007945
     15          1           0       -6.277407   -1.513588   -0.310735
     16          6           0       -5.227734    0.028273    0.725175
     17          1           0       -5.314998    1.114783    0.704820
     18          1           0       -5.240883   -0.317239    1.758366
     19          6           0       -3.918360   -0.370823    0.090704
     20          8           0       -3.685921   -1.532045   -0.254854
     21          7           0       -2.887275    0.655098   -0.121845
     22          1           0       -2.811006    1.645892    0.058870
     23          6           0       -1.754276   -0.024884   -0.742492
     24          1           0       -1.840097   -1.097621   -0.568124
     25          1           0       -1.762413    0.170478   -1.814565
     26          6           0       -0.448262    0.463617   -0.163640
     27          8           0       -0.218964    1.662905    0.013992
     28          7           0        0.582200   -0.520209    0.198600
     29          1           0        0.660382   -1.526188    0.161952
     30          6           0        1.711735    0.243009    0.722173
     31          1           0        1.625145    1.279357    0.396490
     32          1           0        1.697832    0.202531    1.811738
     33          6           0        3.021105   -0.319506    0.226394
     34          8           0        3.252809   -1.531746    0.221259
     35          7           0        4.052408    0.604874   -0.267196
     36          1           0        4.128959    1.606154   -0.374272
     37          6           0        5.185478   -0.223957   -0.670897
     38          1           0        5.098070   -1.204023   -0.201261
     39          1           0        5.177863   -0.338607   -1.754252
     40          6           0        6.491766    0.406760   -0.252858
     41          8           0        6.722279    1.607130   -0.419538
     42          7           0        7.521263   -0.436177    0.372363
     43          1           0        7.598823   -1.412398    0.621226
     44          6           0        8.651270    0.443724    0.659830
     45          1           0        8.566027    1.346532    0.054770
     46          1           0        8.637766    0.711666    1.716196
     47          6           0        9.960682   -0.237356    0.343154
     48          8           0       10.191180   -1.401195    0.680786
     49          7           0       10.992595    0.509570   -0.390351
     50          1           0       11.062080    1.442000   -0.772279
     51          6           0       12.126098   -0.386016   -0.549149
     52          1           0       11.898168   -1.347113   -0.086900
     53          1           0       12.328229   -0.532930   -1.610441
     54          1           0       13.003009    0.048242   -0.069588
 ---------------------------------------------------------------------
 Rotational constants (GHZ):      1.1188026      0.0228701      0.0226279
 Standard basis: 6-31G(d) (6D, 7F)
 There are   485 symmetry adapted basis functions of A   symmetry.
 Integral buffers will be    131072 words long.
 Raffenetti 1 integral format.
 Two-electron integral symmetry is turned on.
   485 basis functions,   912 primitive gaussians,   485 cartesian basis functions
   110 alpha electrons      110 beta electrons
       nuclear repulsion energy      2429.5811747949 Hartrees.
 One-electron integrals computed using PRISM.
 NBasis=   485 RedAO= T  NBF=   485
 NBsUse=   485 1.00D-06 NBFU=   485
 Harris functional with IExCor=  205 diagonalized for initial guess.
 ExpMin= 1.61D-01 ExpMax= 5.48D+03 ExpMxC= 8.25D+02 IAcc=1 IRadAn=         1 AccDes= 0.00D+00
 HarFok:  IExCor=  205 AccDes= 0.00D+00 IRadAn=         1 IDoV= 1
 ScaDFX=  1.000000  1.000000  1.000000  1.000000
 FoFCou: FMM=F IPFlag=           0 FMFlag=      100000 FMFlg1=         800
         NFxFlg=           0 DoJE=T BraDBF=F KetDBF=T FulRan=T
         Omega=  0.000000  0.000000  1.000000  0.000000  0.000000 ICntrl=     500 IOpCl=  0
         NMat0=    1 NMatS0=    1 NMatT0=    0 NMatD0=    1 NMtDS0=    0 NMtDT0=    0
         I1Cent=           4 NGrid=           0.
 Petite list used in FoFCou.
 Initial guess orbital symmetries:
       Occupied  (A) (A) (A) (A) (A) (A) (A) (A) (A) (A) (A) (A)
                 (A) (A) (A) (A) (A) (A) (A) (A) (A) (A) (A) (A)
                 (A) (A) (A) (A) (A) (A) (A) (A) (A) (A) (A) (A)
                 (A) (A) (A) (A) (A) (A) (A) (A) (A) (A) (A) (A)
                 (A) (A) (A) (A) (A) (A) (A) (A) (A) (A) (A) (A)
                 (A) (A) (A) (A) (A) (A) (A) (A) (A) (A) (A) (A)
                 (A) (A) (A) (A) (A) (A) (A) (A) (A) (A) (A) (A)
                 (A) (A) (A) (A) (A) (A) (A) (A) (A) (A) (A) (A)
                 (A) (A) (A) (A) (A) (A) (A) (A) (A) (A) (A) (A)
                 (A) (A)
       Virtual   (A) (A) (A) (A) (A) (A) (A) (A) (A) (A) (A) (A)
                 (A) (A) (A) (A) (A) (A) (A) (A) (A) (A) (A) (A)
                 (A) (A) (A) (A) (A) (A) (A) (A) (A) (A) (A) (A)
                 (A) (A) (A) (A) (A) (A) (A) (A) (A) (A) (A) (A)
                 (A) (A) (A) (A) (A) (A) (A) (A) (A) (A) (A) (A)
                 (A) (A) (A) (A) (A) (A) (A) (A) (A) (A) (A) (A)
                 (A) (A) (A) (A) (A) (A) (A) (A) (A) (A) (A) (A)
                 (A) (A) (A) (A) (A) (A) (A) (A) (A) (A) (A) (A)
                 (A) (A) (A) (A) (A) (A) (A) (A) (A) (A) (A) (A)
                 (A) (A) (A) (A) (A) (A) (A) (A) (A) (A) (A) (A)
                 (A) (A) (A) (A) (A) (A) (A) (A) (A) (A) (A) (A)
                 (A) (A) (A) (A) (A) (A) (A) (A) (A) (A) (A) (A)
                 (A) (A) (A) (A) (A) (A) (A) (A) (A) (A) (A) (A)
                 (A) (A) (A) (A) (A) (A) (A) (A) (A) (A) (A) (A)
                 (A) (A) (A) (A) (A) (A) (A) (A) (A) (A) (A) (A)
                 (A) (A) (A) (A) (A) (A) (A) (A) (A) (A) (A) (A)
                 (A) (A) (A) (A) (A) (A) (A) (A) (A) (A) (A) (A)
                 (A) (A) (A) (A) (A) (A) (A) (A) (A) (A) (A) (A)
                 (A) (A) (A) (A) (A) (A) (A) (A) (A) (A) (A) (A)
                 (A) (A) (A) (A) (A) (A) (A) (A) (A) (A) (A) (A)
                 (A) (A) (A) (A) (A) (A) (A) (A) (A) (A) (A) (A)
                 (A) (A) (A) (A) (A) (A) (A) (A) (A) (A) (A) (A)
                 (A) (A) (A) (A) (A) (A) (A) (A) (A) (A) (A) (A)
                 (A) (A) (A) (A) (A) (A) (A) (A) (A) (A) (A) (A)
                 (A) (A) (A) (A) (A) (A) (A) (A) (A) (A) (A) (A)
                 (A) (A) (A) (A) (A) (A) (A) (A) (A) (A) (A) (A)
                 (A) (A) (A) (A) (A) (A) (A) (A) (A) (A) (A) (A)
                 (A) (A) (A) (A) (A) (A) (A) (A) (A) (A) (A) (A)
                 (A) (A) (A) (A) (A) (A) (A) (A) (A) (A) (A) (A)
                 (A) (A) (A) (A) (A) (A) (A) (A) (A) (A) (A) (A)
                 (A) (A) (A) (A) (A) (A) (A) (A) (A) (A) (A) (A)
                 (A) (A) (A)
 The electronic state of the initial guess is 1-A.
 Requested convergence on RMS density matrix=1.00D-05 within 128 cycles.
 Requested convergence on MAX density matrix=1.00D-03.
 Requested convergence on             energy=1.00D-03.
 No special actions if energy rises.
 Integral accuracy reduced to 1.0D-05 until final iterations.
 Initial convergence to 1.0D-05 achieved.  Increase integral accuracy.
 SCF Done:  E(RHF) =  -1487.65844401     A.U. after   10 cycles
             Convg  =    0.4255D-06             -V/T =  2.0035

 **********************************************************************

            Population analysis using the SCF density.

 **********************************************************************

 Orbital symmetries:
       Occupied  (A) (A) (A) (A) (A) (A) (A) (A) (A) (A) (A) (A)
                 (A) (A) (A) (A) (A) (A) (A) (A) (A) (A) (A) (A)
                 (A) (A) (A) (A) (A) (A) (A) (A) (A) (A) (A) (A)
                 (A) (A) (A) (A) (A) (A) (A) (A) (A) (A) (A) (A)
                 (A) (A) (A) (A) (A) (A) (A) (A) (A) (A) (A) (A)
                 (A) (A) (A) (A) (A) (A) (A) (A) (A) (A) (A) (A)
                 (A) (A) (A) (A) (A) (A) (A) (A) (A) (A) (A) (A)
                 (A) (A) (A) (A) (A) (A) (A) (A) (A) (A) (A) (A)
                 (A) (A) (A) (A) (A) (A) (A) (A) (A) (A) (A) (A)
                 (A) (A)
       Virtual   (A) (A) (A) (A) (A) (A) (A) (A) (A) (A) (A) (A)
                 (A) (A) (A) (A) (A) (A) (A) (A) (A) (A) (A) (A)
                 (A) (A) (A) (A) (A) (A) (A) (A) (A) (A) (A) (A)
                 (A) (A) (A) (A) (A) (A) (A) (A) (A) (A) (A) (A)
                 (A) (A) (A) (A) (A) (A) (A) (A) (A) (A) (A) (A)
                 (A) (A) (A) (A) (A) (A) (A) (A) (A) (A) (A) (A)
                 (A) (A) (A) (A) (A) (A) (A) (A) (A) (A) (A) (A)
                 (A) (A) (A) (A) (A) (A) (A) (A) (A) (A) (A) (A)
                 (A) (A) (A) (A) (A) (A) (A) (A) (A) (A) (A) (A)
                 (A) (A) (A) (A) (A) (A) (A) (A) (A) (A) (A) (A)
                 (A) (A) (A) (A) (A) (A) (A) (A) (A) (A) (A) (A)
                 (A) (A) (A) (A) (A) (A) (A) (A) (A) (A) (A) (A)
                 (A) (A) (A) (A) (A) (A) (A) (A) (A) (A) (A) (A)
                 (A) (A) (A) (A) (A) (A) (A) (A) (A) (A) (A) (A)
                 (A) (A) (A) (A) (A) (A) (A) (A) (A) (A) (A) (A)
                 (A) (A) (A) (A) (A) (A) (A) (A) (A) (A) (A) (A)
                 (A) (A) (A) (A) (A) (A) (A) (A) (A) (A) (A) (A)
                 (A) (A) (A) (A) (A) (A) (A) (A) (A) (A) (A) (A)
                 (A) (A) (A) (A) (A) (A) (A) (A) (A) (A) (A) (A)
                 (A) (A) (A) (A) (A) (A) (A) (A) (A) (A) (A) (A)
                 (A) (A) (A) (A) (A) (A) (A) (A) (A) (A) (A) (A)
                 (A) (A) (A) (A) (A) (A) (A) (A) (A) (A) (A) (A)
                 (A) (A) (A) (A) (A) (A) (A) (A) (A) (A) (A) (A)
                 (A) (A) (A) (A) (A) (A) (A) (A) (A) (A) (A) (A)
                 (A) (A) (A) (A) (A) (A) (A) (A) (A) (A) (A) (A)
                 (A) (A) (A) (A) (A) (A) (A) (A) (A) (A) (A) (A)
                 (A) (A) (A) (A) (A) (A) (A) (A) (A) (A) (A) (A)
                 (A) (A) (A) (A) (A) (A) (A) (A) (A) (A) (A) (A)
                 (A) (A) (A) (A) (A) (A) (A) (A) (A) (A) (A) (A)
                 (A) (A) (A) (A) (A) (A) (A) (A) (A) (A) (A) (A)
                 (A) (A) (A) (A) (A) (A) (A) (A) (A) (A) (A) (A)
                 (A) (A) (A)
 The electronic state is 1-A.
 Alpha  occ. eigenvalues --  -20.55667 -20.55605 -20.55542 -20.55382 -20.55224
 Alpha  occ. eigenvalues --  -20.55086 -20.54009 -15.60305 -15.60250 -15.60165
 Alpha  occ. eigenvalues --  -15.60112 -15.60002 -15.59595 -15.58346 -11.38661
 Alpha  occ. eigenvalues --  -11.38534 -11.38485 -11.38427 -11.38279 -11.37974
 Alpha  occ. eigenvalues --  -11.36955 -11.27593 -11.27585 -11.27527 -11.27422
 Alpha  occ. eigenvalues --  -11.27194 -11.26633 -11.25203 -11.23196  -1.40321
 Alpha  occ. eigenvalues --   -1.40045  -1.39751  -1.39480  -1.39179  -1.38924
 Alpha  occ. eigenvalues --   -1.38224  -1.21984  -1.21835  -1.21665  -1.21510
 Alpha  occ. eigenvalues --   -1.21369  -1.20962  -1.19515  -1.03719  -1.02551
 Alpha  occ. eigenvalues --   -1.01065  -0.99128  -0.96883  -0.94580  -0.92629
 Alpha  occ. eigenvalues --   -0.89183  -0.80713  -0.80624  -0.80438  -0.80259
 Alpha  occ. eigenvalues --   -0.80098  -0.79779  -0.78718  -0.75651  -0.73616
 Alpha  occ. eigenvalues --   -0.71354  -0.69376  -0.68158  -0.68107  -0.67908
 Alpha  occ. eigenvalues --   -0.67317  -0.67101  -0.66201  -0.65476  -0.65285
 Alpha  occ. eigenvalues --   -0.64776  -0.64179  -0.62964  -0.62278  -0.61571
 Alpha  occ. eigenvalues --   -0.61223  -0.60412  -0.59643  -0.59096  -0.58858
 Alpha  occ. eigenvalues --   -0.58532  -0.58216  -0.58080  -0.57925  -0.57583
 Alpha  occ. eigenvalues --   -0.57366  -0.56694  -0.56640  -0.54426  -0.53138
 Alpha  occ. eigenvalues --   -0.52239  -0.51608  -0.51017  -0.50762  -0.50581
 Alpha  occ. eigenvalues --   -0.49924  -0.46226  -0.45702  -0.44982  -0.44087
 Alpha  occ. eigenvalues --   -0.43219  -0.42636  -0.42130  -0.40493  -0.40192
 Alpha  occ. eigenvalues --   -0.39846  -0.39533  -0.39322  -0.38972  -0.37783
 Alpha virt. eigenvalues --    0.15261   0.15602   0.16050   0.16589   0.17154
 Alpha virt. eigenvalues --    0.17538   0.18049   0.22739   0.22764   0.23377
 Alpha virt. eigenvalues --    0.23579   0.23768   0.23962   0.24300   0.26107
 Alpha virt. eigenvalues --    0.27662   0.28142   0.28343   0.28498   0.28771
 Alpha virt. eigenvalues --    0.29264   0.29639   0.29932   0.30128   0.30571
 Alpha virt. eigenvalues --    0.31026   0.31573   0.32360   0.33260   0.33425
 Alpha virt. eigenvalues --    0.34175   0.35538   0.37378   0.38005   0.38302
 Alpha virt. eigenvalues --    0.38731   0.39738   0.40813   0.41449   0.41646
 Alpha virt. eigenvalues --    0.42721   0.42947   0.43213   0.43570   0.44118
 Alpha virt. eigenvalues --    0.44929   0.46809   0.47815   0.48515   0.49184
 Alpha virt. eigenvalues --    0.49871   0.50649   0.51461   0.52602   0.53365
 Alpha virt. eigenvalues --    0.54217   0.55282   0.56347   0.57151   0.57562
 Alpha virt. eigenvalues --    0.72010   0.72898   0.72971   0.73081   0.73202
 Alpha virt. eigenvalues --    0.73525   0.73945   0.74341   0.74771   0.76914
 Alpha virt. eigenvalues --    0.77524   0.78019   0.78349   0.78686   0.79095
 Alpha virt. eigenvalues --    0.79442   0.79937   0.80664   0.80720   0.80988
 Alpha virt. eigenvalues --    0.81311   0.81689   0.82546   0.84570   0.85231
 Alpha virt. eigenvalues --    0.85940   0.86698   0.88194   0.89222   0.89723
 Alpha virt. eigenvalues --    0.90638   0.91258   0.91701   0.92048   0.92532
 Alpha virt. eigenvalues --    0.92849   0.93100   0.93714   0.94220   0.95222
 Alpha virt. eigenvalues --    0.95480   0.96373   0.96971   0.98834   1.00102
 Alpha virt. eigenvalues --    1.01030   1.01444   1.02233   1.02675   1.03629
 Alpha virt. eigenvalues --    1.04565   1.05183   1.05865   1.06121   1.06946
 Alpha virt. eigenvalues --    1.07263   1.07705   1.08020   1.08307   1.08604
 Alpha virt. eigenvalues --    1.10706   1.11418   1.11646   1.11935   1.12000
 Alpha virt. eigenvalues --    1.12335   1.13001   1.13448   1.13912   1.14050
 Alpha virt. eigenvalues --    1.14533   1.15198   1.16336   1.16584   1.16659
 Alpha virt. eigenvalues --    1.16948   1.17113   1.17345   1.17716   1.18154
 Alpha virt. eigenvalues --    1.18390   1.18683   1.19670   1.19981   1.20489
 Alpha virt. eigenvalues --    1.20848   1.20963   1.21822   1.22240   1.22326
 Alpha virt. eigenvalues --    1.23074   1.23748   1.24607   1.25432   1.25999
 Alpha virt. eigenvalues --    1.26078   1.26644   1.27055   1.31367   1.31752
 Alpha virt. eigenvalues --    1.32620   1.33893   1.34398   1.34696   1.34975
 Alpha virt. eigenvalues --    1.35897   1.36411   1.38435   1.38969   1.39129
 Alpha virt. eigenvalues --    1.40112   1.40226   1.46125   1.47172   1.48009
 Alpha virt. eigenvalues --    1.48337   1.49056   1.49961   1.51529   1.51735
 Alpha virt. eigenvalues --    1.53680   1.57966   1.60140   1.60268   1.60888
 Alpha virt. eigenvalues --    1.61578   1.62483   1.64279   1.65106   1.66187
 Alpha virt. eigenvalues --    1.66348   1.67002   1.68541   1.69562   1.69927
 Alpha virt. eigenvalues --    1.72091   1.73677   1.74086   1.74291   1.74594
 Alpha virt. eigenvalues --    1.75205   1.76138   1.78502   1.83308   1.84171
 Alpha virt. eigenvalues --    1.85344   1.85772   1.86281   1.86843   1.87503
 Alpha virt. eigenvalues --    1.89727   1.90040   1.90245   1.91687   1.93630
 Alpha virt. eigenvalues --    1.94998   1.99021   2.00788   2.01599   2.02608
 Alpha virt. eigenvalues --    2.03521   2.04195   2.04802   2.05538   2.06564
 Alpha virt. eigenvalues --    2.06923   2.06955   2.07480   2.07777   2.07996
 Alpha virt. eigenvalues --    2.08654   2.08728   2.08998   2.09435   2.10879
 Alpha virt. eigenvalues --    2.12558   2.13931   2.15634   2.16077   2.16213
 Alpha virt. eigenvalues --    2.17079   2.18756   2.20792   2.20866   2.21834
 Alpha virt. eigenvalues --    2.22199   2.23091   2.23686   2.24070   2.25227
 Alpha virt. eigenvalues --    2.25907   2.26652   2.26881   2.28196   2.28608
 Alpha virt. eigenvalues --    2.29788   2.31111   2.32367   2.33665   2.35275
 Alpha virt. eigenvalues --    2.35948   2.36877   2.37753   2.38347   2.38600
 Alpha virt. eigenvalues --    2.40116   2.40448   2.41463   2.42309   2.42977
 Alpha virt. eigenvalues --    2.43461   2.43726   2.43761   2.45823   2.47924
 Alpha virt. eigenvalues --    2.49658   2.49746   2.50687   2.50858   2.51523
 Alpha virt. eigenvalues --    2.53240   2.54676   2.60573   2.60811   2.61405
 Alpha virt. eigenvalues --    2.61589   2.61979   2.62268   2.64733   2.66494
 Alpha virt. eigenvalues --    2.67017   2.67930   2.68247   2.68892   2.69687
 Alpha virt. eigenvalues --    2.69978   2.70846   2.71737   2.74024   2.75102
 Alpha virt. eigenvalues --    2.76285   2.76391   2.77032   2.77276   2.82971
 Alpha virt. eigenvalues --    2.84390   2.85908   2.87352   2.88630   2.89661
 Alpha virt. eigenvalues --    2.90460   2.92543   2.92717   2.93401   2.93502
 Alpha virt. eigenvalues --    2.93701   2.94098   2.94293   2.94492   3.01194
 Alpha virt. eigenvalues --    3.01407   3.02254   3.02409   3.03661   3.04887
 Alpha virt. eigenvalues --    3.15140   3.16093   3.17607   3.19600   3.21826
 Alpha virt. eigenvalues --    3.23860   3.25243   3.31597   3.33228   3.33614
 Alpha virt. eigenvalues --    3.34155   3.34686   3.34981   3.35318   3.39237
 Alpha virt. eigenvalues --    3.40630   3.42159   3.43474   3.44578   3.45471
 Alpha virt. eigenvalues --    3.46071   4.30108   4.30948   4.31235   4.31846
 Alpha virt. eigenvalues --    4.33690   4.36129   4.38237   4.40533   4.44665
 Alpha virt. eigenvalues --    4.46087   4.46500   4.47116   4.47545   4.48272
 Alpha virt. eigenvalues --    4.55307   4.56655   4.58046   4.60369   4.63379
 Alpha virt. eigenvalues --    4.66606   4.69372   4.72563   4.83140   4.89732
 Alpha virt. eigenvalues --    4.91799   4.94010   4.95942   4.97380   4.98232
          Condensed to atoms (all electrons):
 Mulliken atomic charges:
              1
     1  H    0.222920
     2  C   -0.564708
     3  H    0.197259
     4  H    0.196306
     5  C    0.760473
     6  O   -0.606342
     7  N   -0.848185
     8  H    0.421547
     9  C   -0.193444
    10  H    0.268651
    11  H    0.204584
    12  C    0.775024
    13  O   -0.626185
    14  N   -0.854908
    15  H    0.426577
    16  C   -0.197367
    17  H    0.269242
    18  H    0.205652
    19  C    0.775406
    20  O   -0.624399
    21  N   -0.855182
    22  H    0.425618
    23  C   -0.197108
    24  H    0.269887
    25  H    0.205968
    26  C    0.775097
    27  O   -0.625192
    28  N   -0.854793
    29  H    0.425977
    30  C   -0.197394
    31  H    0.269430
    32  H    0.205607
    33  C    0.775360
    34  O   -0.624994
    35  N   -0.855142
    36  H    0.425257
    37  C   -0.197505
    38  H    0.270088
    39  H    0.204961
    40  C    0.774913
    41  O   -0.627284
    42  N   -0.854195
    43  H    0.425734
    44  C   -0.196543
    45  H    0.264391
    46  H    0.201364
    47  C    0.768348
    48  O   -0.627595
    49  N   -0.839531
    50  H    0.398982
    51  C   -0.314536
    52  H    0.266657
    53  H    0.153115
    54  H    0.152137
 Sum of Mulliken atomic charges =   0.00000
 Mulliken charges with hydrogens summed into heavy atoms:
              1
     2  C    0.051777
     5  C    0.760473
     6  O   -0.606342
     7  N   -0.426638
     9  C    0.279791
    12  C    0.775024
    13  O   -0.626185
    14  N   -0.428331
    16  C    0.277528
    19  C    0.775406
    20  O   -0.624399
    21  N   -0.429564
    23  C    0.278746
    26  C    0.775097
    27  O   -0.625192
    28  N   -0.428817
    30  C    0.277643
    33  C    0.775360
    34  O   -0.624994
    35  N   -0.429885
    37  C    0.277544
    40  C    0.774913
    41  O   -0.627284
    42  N   -0.428460
    44  C    0.269212
    47  C    0.768348
    48  O   -0.627595
    49  N   -0.440549
    51  C    0.257373
 Sum of Mulliken charges with hydrogens summed into heavy atoms =   0.00000
 Electronic spatial extent (au):  <R**2>=          43534.8782
 Charge=              0.0000 electrons
 Dipole moment (field-independent basis, Debye):
    X=             -3.5907    Y=              2.9015    Z=              0.4915  Tot=              4.6426
 Quadrupole moment (field-independent basis, Debye-Ang):
   XX=           -138.7110   YY=           -185.8765   ZZ=           -167.0595
   XY=              1.8706   XZ=            -23.2243   YZ=             -1.3980
 Traceless Quadrupole moment (field-independent basis, Debye-Ang):
   XX=             25.1713   YY=            -21.9942   ZZ=             -3.1771
   XY=              1.8706   XZ=            -23.2243   YZ=             -1.3980
 Octapole moment (field-independent basis, Debye-Ang**2):
  XXX=           -537.8367  YYY=              5.0922  ZZZ=              0.9828  XYY=             17.9443
  XXY=            424.3914  XXZ=             75.5243  XZZ=             -0.9389  YZZ=              3.7251
  YYZ=             -0.3771  XYZ=             44.0660
 Hexadecapole moment (field-independent basis, Debye-Ang**3):
 XXXX=         -46950.0194 YYYY=           -957.5153 ZZZZ=           -438.2086 XXXY=            216.1486
 XXXZ=          -3415.7893 YYYX=             -0.3975 YYYZ=             -3.8110 ZZZX=              7.3227
 ZZZY=             -2.3374 XXYY=          -9995.7186 XXZZ=          -9260.4355 YYZZ=           -237.7047
 XXYZ=           -189.1712 YYXZ=            -65.5881 ZZXY=              5.0605
 N-N= 2.429581174795D+03 E-N=-8.349933955755D+03  KE= 1.482464662049D+03
 1\1\GINC-QTPCLNT135\SP\RHF\6-31G(d)\C15H25N7O7\MIAO\03-Nov-2010\0\\#HF
 /6-31g* scf=(conver=5) nofmm\\test\\0,1\H,0,-0.791,-0.866,0.019\C,0,-0
 .41,0.146,0.154\H,0,-0.503,0.433,1.201\H,0,-0.984,0.836,-0.464\C,0,1.0
 48,0.238,-0.245\O,0,1.659,-0.755,-0.662\N,0,1.748,1.526,-0.136\H,0,1.4
 92,2.463,0.139\C,0,3.128,1.277,-0.544\H,0,3.332,0.208,-0.484\H,0,3.265
 ,1.616,-1.571\C,0,4.097,2.013,0.349\O,0,3.922,3.19,0.674\N,0,5.285,1.3
 05,0.847\H,0,5.664,0.374,0.744\C,0,6.017,2.263,1.671\H,0,5.69,3.273,1.
 423\H,0,5.811,2.063,2.722\C,0,7.503,2.156,1.433\O,0,8.08,1.067,1.378\N
 ,0,8.288,3.387,1.262\H,0,8.083,4.376,1.261\C,0,9.67,2.966,1.052\H,0,9.
 791,1.942,1.406\H,0,9.901,3.012,-0.012\C,0,10.627,3.861,1.802\O,0,10.5
 18,5.09,1.792\N,0,11.723,3.249,2.567\H,0,12.038,2.306,2.743\C,0,12.466
 ,4.351,3.172\H,0,12.232,5.274,2.642\H,0,12.174,4.449,4.218\C,0,13.953,
 4.106,3.098\O,0,14.451,3.012,3.378\N,0,14.836,5.204,2.678\H,0,14.705,6
 .166,2.4\C,0,16.195,4.669,2.704\H,0,16.215,3.771,3.322\H,0,16.501,4.41
 8,1.689\C,0,17.162,5.679,3.273\O,0,17.145,6.865,2.934\N,0,18.155,5.235
 ,4.262\H,0,18.387,4.357,4.705\C,0,18.934,6.418,4.619\H,0,18.806,7.178,
 3.848\H,0,18.58,6.806,5.574\C,0,20.401,6.083,4.739\O,0,20.796,5.079,5.
 337\N,0,21.389,6.981,4.124\H,0,21.34,7.84,3.595\C,0,22.699,6.414,4.397
 \H,0,22.585,5.495,4.973\H,0,23.203,6.192,3.456\H,0,23.293,7.128,4.967\
 \Version=EM64M-G09RevA.02\State=1-A\HF=-1487.658444\RMSD=4.255e-07\Dip
 ole=-1.6373162,0.7302595,-0.3494799\Quadrupole=23.2005634,-14.279466,-
 8.9210974,9.0405555,-10.8068571,-1.8313692\PG=C01 [X(C15H25N7O7)]\\@


 THE MEEK SHALL INHERIT THE EARTH.
 (THE REST OF US WILL ESCAPE TO THE STARS)
 Job cpu time:  0 days  0 hours  4 minutes 11.6 seconds.
 File lengths (MBytes):  RWF=    129 Int=      0 D2E=      0 Chk=      9 Scr=      1
 Normal termination of Gaussian 09 at Wed Nov  3 15:06:25 2010.
